# vtk DataFile Version 2.0
Grille
ASCII
DATASET POLYDATA
POINTS 28929 float
0.000000E+00 9.843750E-01 -9.572176E-01
7.812500E-03 9.843750E-01 -9.569850E-01
1.562500E-02 9.843750E-01 -9.560838E-01
1.562500E-02 9.921875E-01 -9.569850E-01
1.562500E-02 1.000000E+00 -9.572176E-01
7.812500E-03 1.000000E+00 -9.581416E-01
0.000000E+00 1.000000E+00 -9.583826E-01
0.000000E+00 9.921875E-01 -9.581416E-01
4.687500E-03 9.890625E-01 -9.577754E-01
1.015625E-02 9.898438E-01 -9.574375E-01
1.093750E-02 9.953125E-01 -9.577754E-01
5.468750E-03 9.945312E-01 -9.581629E-01
2.343750E-02 9.843750E-01 -9.546795E-01
3.125000E-02 9.843750E-01 -9.526275E-01
3.125000E-02 9.921875E-01 -9.535254E-01
3.125000E-02 1.000000E+00 -9.537379E-01
2.343750E-02 1.000000E+00 -9.558383E-01
2.031250E-02 9.890625E-01 -9.559429E-01
2.578125E-02 9.898438E-01 -9.547683E-01
2.656250E-02 9.953125E-01 -9.549928E-01
2.109375E-02 9.945312E-01 -9.562174E-01
0.000000E+00 9.687500E-01 -9.537379E-01
7.812500E-03 9.687500E-01 -9.535254E-01
1.562500E-02 9.687500E-01 -9.526275E-01
1.562500E-02 9.765625E-01 -9.546795E-01
0.000000E+00 9.765625E-01 -9.558383E-01
4.687500E-03 9.734375E-01 -9.549928E-01
1.015625E-02 9.742188E-01 -9.547683E-01
1.093750E-02 9.796875E-01 -9.559429E-01
5.468750E-03 9.789062E-01 -9.562174E-01
2.343750E-02 9.687500E-01 -9.512283E-01
3.125000E-02 9.687500E-01 -9.491837E-01
3.125000E-02 9.765625E-01 -9.512283E-01
2.031250E-02 9.734375E-01 -9.531657E-01
2.578125E-02 9.742188E-01 -9.521066E-01
2.656250E-02 9.796875E-01 -9.531657E-01
2.109375E-02 9.789062E-01 -9.542758E-01
3.906250E-02 9.843750E-01 -9.500742E-01
4.687500E-02 9.843750E-01 -9.468762E-01
4.687500E-02 9.921875E-01 -9.477687E-01
4.687500E-02 1.000000E+00 -9.479606E-01
3.906250E-02 1.000000E+00 -9.512323E-01
3.593750E-02 9.890625E-01 -9.518075E-01
4.140625E-02 9.898438E-01 -9.497990E-01
4.218750E-02 9.953125E-01 -9.499096E-01
3.671875E-02 9.945312E-01 -9.519682E-01
5.468750E-02 9.843750E-01 -9.431800E-01
6.250000E-02 9.843750E-01 -9.388439E-01
6.250000E-02 9.921875E-01 -9.397287E-01
6.250000E-02 1.000000E+00 -9.398996E-01
5.468750E-02 1.000000E+00 -9.443347E-01
5.156250E-02 9.890625E-01 -9.453791E-01
5.703125E-02 9.898438E-01 -9.425416E-01
5.781250E-02 9.953125E-01 -9.425380E-01
5.234375E-02 9.945312E-01 -9.454257E-01
3.906250E-02 9.687500E-01 -9.466396E-01
4.687500E-02 9.687500E-01 -9.434533E-01
4.687500E-02 9.765625E-01 -9.454854E-01
3.593750E-02 9.734375E-01 -9.490423E-01
4.140625E-02 9.742188E-01 -9.471512E-01
4.218750E-02 9.796875E-01 -9.480922E-01
3.671875E-02 9.789062E-01 -9.500353E-01
5.468750E-02 9.687500E-01 -9.397703E-01
6.250000E-02 9.687500E-01 -9.354500E-01
6.250000E-02 9.765625E-01 -9.374648E-01
5.156250E-02 9.734375E-01 -9.426326E-01
5.703125E-02 9.742188E-01 -9.399140E-01
5.781250E-02 9.796875E-01 -9.407347E-01
5.234375E-02 9.789062E-01 -9.435062E-01
0.000000E+00 9.531250E-01 -9.479606E-01
7.812500E-03 9.531250E-01 -9.477687E-01
1.562500E-02 9.531250E-01 -9.468762E-01
1.562500E-02 9.609375E-01 -9.500742E-01
0.000000E+00 9.609375E-01 -9.512323E-01
4.687500E-03 9.578125E-01 -9.499096E-01
1.015625E-02 9.585938E-01 -9.497990E-01
1.093750E-02 9.640625E-01 -9.518075E-01
5.468750E-03 9.632812E-01 -9.519682E-01
2.343750E-02 9.531250E-01 -9.454854E-01
3.125000E-02 9.531250E-01 -9.434533E-01
3.125000E-02 9.609375E-01 -9.466396E-01
2.031250E-02 9.578125E-01 -9.480922E-01
2.578125E-02 9.585938E-01 -9.471512E-01
2.656250E-02 9.640625E-01 -9.490423E-01
2.109375E-02 9.632812E-01 -9.500353E-01
0.000000E+00 9.375000E-01 -9.398996E-01
7.812500E-03 9.375000E-01 -9.397287E-01
1.562500E-02 9.375000E-01 -9.388439E-01
1.562500E-02 9.453125E-01 -9.431800E-01
0.000000E+00 9.453125E-01 -9.443347E-01
4.687500E-03 9.421875E-01 -9.425380E-01
1.015625E-02 9.429688E-01 -9.425416E-01
1.093750E-02 9.484375E-01 -9.453791E-01
5.468750E-03 9.476562E-01 -9.454257E-01
2.343750E-02 9.375000E-01 -9.374648E-01
3.125000E-02 9.375000E-01 -9.354500E-01
3.125000E-02 9.453125E-01 -9.397703E-01
2.031250E-02 9.421875E-01 -9.407347E-01
2.578125E-02 9.429688E-01 -9.399140E-01
2.656250E-02 9.484375E-01 -9.426326E-01
2.109375E-02 9.476562E-01 -9.435062E-01
3.906250E-02 9.531250E-01 -9.409244E-01
4.687500E-02 9.531250E-01 -9.377574E-01
4.687500E-02 9.609375E-01 -9.409244E-01
3.593750E-02 9.578125E-01 -9.439908E-01
4.140625E-02 9.585938E-01 -9.422216E-01
4.218750E-02 9.640625E-01 -9.439908E-01
3.671875E-02 9.632812E-01 -9.458137E-01
5.468750E-02 9.531250E-01 -9.340966E-01
6.250000E-02 9.531250E-01 -9.298025E-01
6.250000E-02 9.609375E-01 -9.329425E-01
5.156250E-02 9.578125E-01 -9.376152E-01
5.703125E-02 9.585938E-01 -9.350221E-01
5.781250E-02 9.640625E-01 -9.366651E-01
5.234375E-02 9.632812E-01 -9.393136E-01
3.906250E-02 9.375000E-01 -9.329425E-01
4.687500E-02 9.375000E-01 -9.298025E-01
4.687500E-02 9.453125E-01 -9.340966E-01
3.593750E-02 9.421875E-01 -9.366651E-01
4.140625E-02 9.429688E-01 -9.350221E-01
4.218750E-02 9.484375E-01 -9.376152E-01
3.671875E-02 9.476562E-01 -9.393136E-01
5.468750E-02 9.375000E-01 -9.261726E-01
6.250000E-02 9.375000E-01 -9.219150E-01
6.250000E-02 9.453125E-01 -9.261726E-01
5.156250E-02 9.421875E-01 -9.303390E-01
5.703125E-02 9.429688E-01 -9.278777E-01
5.781250E-02 9.484375E-01 -9.303390E-01
5.234375E-02 9.476562E-01 -9.328581E-01
7.031250E-02 9.843750E-01 -9.340136E-01
7.812500E-02 9.843750E-01 -9.285497E-01
7.812500E-02 9.921875E-01 -9.294249E-01
7.812500E-02 1.000000E+00 -9.295742E-01
7.031250E-02 1.000000E+00 -9.351622E-01
6.718750E-02 9.890625E-01 -9.366733E-01
7.265625E-02 9.898438E-01 -9.330135E-01
7.343750E-02 9.953125E-01 -9.328958E-01
6.796875E-02 9.945312E-01 -9.366056E-01
8.593750E-02 9.843750E-01 -9.225971E-01
9.375000E-02 9.843750E-01 -9.160187E-01
9.375000E-02 9.921875E-01 -9.168820E-01
9.375000E-02 1.000000E+00 -9.170095E-01
8.593750E-02 1.000000E+00 -9.237367E-01
8.281250E-02 9.890625E-01 -9.257108E-01
8.828125E-02 9.898438E-01 -9.212376E-01
8.906250E-02 9.953125E-01 -9.210061E-01
8.359375E-02 9.945312E-01 -9.255291E-01
7.031250E-02 9.687500E-01 -9.306370E-01
7.812500E-02 9.687500E-01 -9.251931E-01
7.812500E-02 9.765625E-01 -9.271858E-01
6.718750E-02 9.734375E-01 -9.339520E-01
7.265625E-02 9.742188E-01 -9.304125E-01
7.343750E-02 9.796875E-01 -9.311109E-01
6.796875E-02 9.789062E-01 -9.347040E-01
8.593750E-02 9.687500E-01 -9.192618E-01
9.375000E-02 9.687500E-01 -9.127073E-01
9.375000E-02 9.765625E-01 -9.146731E-01
8.281250E-02 9.734375E-01 -9.230214E-01
8.828125E-02 9.742188E-01 -9.186695E-01
8.906250E-02 9.796875E-01 -9.192440E-01
8.359375E-02 9.789062E-01 -9.236500E-01
1.015625E-01 9.843750E-01 -9.089580E-01
1.093750E-01 9.843750E-01 -9.012808E-01
1.093750E-01 9.921875E-01 -9.021302E-01
1.093750E-01 1.000000E+00 -9.022355E-01
1.015625E-01 1.000000E+00 -9.100859E-01
9.843750E-02 9.890625E-01 -9.125183E-01
1.039063E-01 9.898438E-01 -9.072425E-01
1.046875E-01 9.953125E-01 -9.068976E-01
9.921875E-02 9.945312E-01 -9.122230E-01
1.171875E-01 9.843750E-01 -8.931291E-01
1.250000E-01 9.843750E-01 -8.843717E-01
1.250000E-01 9.921875E-01 -8.852051E-01
1.250000E-01 1.000000E+00 -8.852881E-01
1.171875E-01 1.000000E+00 -8.942426E-01
1.140625E-01 9.890625E-01 -8.971274E-01
1.195313E-01 9.898438E-01 -8.910617E-01
1.203125E-01 9.953125E-01 -8.906043E-01
1.148437E-01 9.945312E-01 -8.967192E-01
1.015625E-01 9.687500E-01 -9.056720E-01
1.093750E-01 9.687500E-01 -8.980227E-01
1.093750E-01 9.765625E-01 -8.999569E-01
9.843750E-02 9.734375E-01 -9.098672E-01
1.039063E-01 9.742188E-01 -9.047134E-01
1.046875E-01 9.796875E-01 -9.051625E-01
9.921875E-02 9.789062E-01 -9.103709E-01
1.171875E-01 9.687500E-01 -8.899003E-01
1.250000E-01 9.687500E-01 -8.811748E-01
1.250000E-01 9.765625E-01 -8.830725E-01
1.140625E-01 9.734375E-01 -8.945211E-01
1.195313E-01 9.742188E-01 -8.885778E-01
1.203125E-01 9.796875E-01 -8.889004E-01
1.148437E-01 9.789062E-01 -8.948986E-01
7.031250E-02 9.531250E-01 -9.250185E-01
7.812500E-02 9.531250E-01 -9.196075E-01
7.812500E-02 9.609375E-01 -9.227130E-01
6.718750E-02 9.578125E-01 -9.289808E-01
7.265625E-02 9.585938E-01 -9.255701E-01
7.343750E-02 9.640625E-01 -9.270829E-01
6.796875E-02 9.632812E-01 -9.305506E-01
8.593750E-02 9.531250E-01 -9.137119E-01
9.375000E-02 9.531250E-01 -9.071971E-01
9.375000E-02 9.609375E-01 -9.102607E-01
8.281250E-02 9.578125E-01 -9.181084E-01
8.828125E-02 9.585938E-01 -9.138883E-01
8.906250E-02 9.640625E-01 -9.152673E-01
8.359375E-02 9.632812E-01 -9.195457E-01
7.031250E-02 9.375000E-01 -9.171715E-01
7.812500E-02 9.375000E-01 -9.118065E-01
7.812500E-02 9.453125E-01 -9.160174E-01
6.718750E-02 9.421875E-01 -9.217716E-01
7.265625E-02 9.429688E-01 -9.184979E-01
7.343750E-02 9.484375E-01 -9.208215E-01
6.796875E-02 9.476562E-01 -9.241554E-01
8.593750E-02 9.375000E-01 -9.059609E-01
9.375000E-02 9.375000E-01 -8.995015E-01
9.375000E-02 9.453125E-01 -9.036554E-01
8.281250E-02 9.421875E-01 -9.109835E-01
8.828125E-02 9.429688E-01 -9.069054E-01
8.906250E-02 9.484375E-01 -9.090857E-01
8.359375E-02 9.476562E-01 -9.132262E-01
1.015625E-01 9.531250E-01 -9.002042E-01
1.093750E-01 9.531250E-01 -8.926013E-01
1.093750E-01 9.609375E-01 -8.956154E-01
9.843750E-02 9.578125E-01 -9.050242E-01
1.039063E-01 9.585938E-01 -9.000048E-01
1.046875E-01 9.640625E-01 -9.012467E-01
9.921875E-02 9.632812E-01 -9.063257E-01
1.171875E-01 9.531250E-01 -8.845277E-01
1.250000E-01 9.531250E-01 -8.758550E-01
1.250000E-01 9.609375E-01 -8.788126E-01
1.140625E-01 9.578125E-01 -8.897597E-01
1.195313E-01 9.585938E-01 -8.839532E-01
1.203125E-01 9.640625E-01 -8.850550E-01
1.148437E-01 9.632812E-01 -8.909222E-01
1.015625E-01 9.375000E-01 -8.925677E-01
1.093750E-01 9.375000E-01 -8.850294E-01
1.093750E-01 9.453125E-01 -8.891164E-01
9.843750E-02 9.421875E-01 -8.980009E-01
1.039063E-01 9.429688E-01 -8.931280E-01
1.046875E-01 9.484375E-01 -8.951598E-01
9.921875E-02 9.476562E-01 -9.000970E-01
1.171875E-01 9.375000E-01 -8.770242E-01
1.250000E-01 9.375000E-01 -8.684253E-01
1.250000E-01 9.453125E-01 -8.724355E-01
1.140625E-01 9.421875E-01 -8.828548E-01
1.195313E-01 9.429688E-01 -8.771991E-01
1.203125E-01 9.484375E-01 -8.790774E-01
[...]
CELL_DATA 57344
SCALARS sol float 1
LOOKUP_TABLE default
-9.574763E-01
-9.575206E-01
-9.578611E-01
-9.569589E-01
-9.579102E-01
-9.569976E-01
-9.581363E-01
-9.565741E-01
-9.564821E-01
-9.579102E-01
-9.569976E-01
-9.564766E-01
-9.583826E-01
-9.557895E-01
-9.557564E-01
-9.581363E-01
-9.575206E-01
-9.564766E-01
-9.557080E-01
-9.583826E-01
-9.554486E-01
-9.550147E-01
-9.552524E-01
-9.578611E-01
-9.574763E-01
-9.557080E-01
-9.564821E-01
-9.551531E-01
-9.545598E-01
-9.542461E-01
-9.541923E-01
-9.569589E-01
-9.552524E-01
-9.551531E-01
-9.557564E-01
-9.541394E-01
-9.538075E-01
-9.532297E-01
-9.536343E-01
-9.565741E-01
-9.541923E-01
-9.541394E-01
-9.554486E-01
-9.533004E-01
-9.527878E-01
-9.524611E-01
-9.525237E-01
-9.524837E-01
-9.557895E-01
-9.538075E-01
-9.536343E-01
-9.533004E-01
-9.545598E-01
-9.522985E-01
-9.516372E-01
-9.511402E-01
-9.513001E-01
-9.514310E-01
-9.550147E-01
-9.527878E-01
-9.524837E-01
-9.522985E-01
-9.542461E-01
-9.510115E-01
-9.510462E-01
-9.506828E-01
-9.506852E-01
-9.498676E-01
-9.501907E-01
-9.516372E-01
-9.525237E-01
-9.514310E-01
-9.510115E-01
-9.532297E-01
-9.499565E-01
-9.494982E-01
-9.490882E-01
-9.492993E-01
-9.487170E-01
-9.488555E-01
-9.506828E-01
-9.510462E-01
-9.513001E-01
-9.501907E-01
-9.499565E-01
-9.524611E-01
-9.484267E-01
-9.485477E-01
-9.484946E-01
-9.483196E-01
-9.472042E-01
-9.477431E-01
-9.490882E-01
-9.494982E-01
-9.506852E-01
-9.488555E-01
-9.484267E-01
-9.511402E-01
-9.473402E-01
-9.470505E-01
-9.469648E-01
-9.468038E-01
-9.460536E-01
-9.462706E-01
-9.459244E-01
-9.483196E-01
-9.484946E-01
-9.485477E-01
-9.492993E-01
-9.477431E-01
-9.473402E-01
-9.498676E-01
-9.455687E-01
-9.455397E-01
-9.454168E-01
-9.452739E-01
-9.441996E-01
-9.445521E-01
-9.448367E-01
-9.468038E-01
-9.469648E-01
-9.470505E-01
-9.487170E-01
-9.459244E-01
-9.455687E-01
-9.441250E-01
-9.439902E-01
-9.446482E-01
-9.439529E-01
-9.438229E-01
-9.436316E-01
-9.424322E-01
-9.429313E-01
-9.452739E-01
-9.462706E-01
-9.454168E-01
-9.455397E-01
-9.472042E-01
-9.448367E-01
-9.441250E-01
-9.425201E-01
-9.420849E-01
-9.425695E-01
-9.421248E-01
-9.416977E-01
-9.417519E-01
-9.409023E-01
-9.413519E-01
-9.438229E-01
-9.446482E-01
-9.445521E-01
-9.439529E-01
-9.439902E-01
-9.460536E-01
-9.429313E-01
-9.425201E-01
-9.404819E-01
-9.409044E-01
-9.409671E-01
-9.415099E-01
-9.410699E-01
-9.405470E-01
-9.388968E-01
-9.393612E-01
-9.416977E-01
-9.425695E-01
-9.436316E-01
-9.421248E-01
-9.420849E-01
-9.441996E-01
-9.413519E-01
-9.404819E-01
-9.389025E-01
-9.385586E-01
-9.386686E-01
-9.395209E-01
-9.391646E-01
-9.385387E-01
-9.373670E-01
-9.377378E-01
-9.374279E-01
-9.405470E-01
-9.410699E-01
-9.415099E-01
-9.417519E-01
-9.409044E-01
-9.409671E-01
-9.424322E-01
-9.393612E-01
-9.389025E-01
-9.366262E-01
-9.377900E-01
-9.374406E-01
-9.371201E-01
-9.371251E-01
-9.366334E-01
-9.349842E-01
-9.355285E-01
-9.357192E-01
-9.385387E-01
-9.391646E-01
-9.395209E-01
-9.409023E-01
-9.385586E-01
-9.386686E-01
-9.374279E-01
-9.366262E-01
-9.350191E-01
-9.357497E-01
-9.351643E-01
-9.350266E-01
-9.359745E-01
-9.354411E-01
-9.346893E-01
-9.343046E-01
-9.327263E-01
-9.331584E-01
-9.366334E-01
-9.377378E-01
-9.371251E-01
-9.377900E-01
-9.388968E-01
-9.374406E-01
-9.371201E-01
-9.357192E-01
-9.350191E-01
-9.325065E-01
-9.334734E-01
-9.330958E-01
-9.327736E-01
-9.333700E-01
-9.331244E-01
-9.320385E-01
-9.319357E-01
-9.308210E-01
-9.315529E-01
-9.346893E-01
-9.359745E-01
-9.355285E-01
-9.354411E-01
-9.357497E-01
-9.373670E-01
-9.351643E-01
-9.350266E-01
-9.331584E-01
-9.325065E-01
-9.304726E-01
-9.317990E-01
-9.323272E-01
-9.308907E-01
-9.307064E-01
-9.322040E-01
-9.313781E-01
-9.305087E-01
-9.283275E-01
-9.289111E-01
-9.320385E-01
-9.333700E-01
-9.343046E-01
-9.331244E-01
-9.334734E-01
-9.349842E-01
-9.330958E-01
-9.327736E-01
-9.315529E-01
-9.304726E-01
-9.282797E-01
-9.289316E-01
-9.295073E-01
-9.284724E-01
-9.280647E-01
-9.297280E-01
-9.291018E-01
-9.280127E-01
-9.264221E-01
-9.269460E-01
-9.268186E-01
-9.305087E-01
-9.313781E-01
-9.322040E-01
-9.319357E-01
-9.317990E-01
-9.323272E-01
-9.327263E-01
-9.308907E-01
-9.307064E-01
-9.289111E-01
-9.282797E-01
-9.255102E-01
-9.277810E-01
-9.277862E-01
-9.278575E-01
-9.266640E-01
-9.264338E-01
-9.265757E-01
-9.257364E-01
-9.235164E-01
-9.242512E-01
-9.240978E-01
-9.280127E-01
-9.291018E-01
-9.297280E-01
-9.308210E-01
-9.289316E-01
-9.295073E-01
-9.284724E-01
-9.280647E-01
-9.268186E-01
-9.255102E-01
-9.234210E-01
-9.252550E-01
-9.251444E-01
-9.252805E-01
-9.235869E-01
-9.234052E-01
-9.250459E-01
-9.246756E-01
-9.233039E-01
-9.227269E-01
-9.207735E-01
-9.215836E-01
-9.257364E-01
-9.269460E-01
-9.265757E-01
-9.277810E-01
-9.283275E-01
-9.277862E-01
-9.278575E-01
-9.266640E-01
-9.264338E-01
-9.240978E-01
-9.234210E-01
-9.204201E-01
-9.226132E-01
-9.225918E-01
-9.228182E-01
-9.219591E-01
-9.212758E-01
-9.219220E-01
-9.218761E-01
-9.201340E-01
-9.198744E-01
-9.184972E-01
-9.192965E-01
-9.233039E-01
-9.250459E-01
-9.242512E-01
-9.246756E-01
-9.252550E-01
-9.264221E-01
-9.251444E-01
-9.252805E-01
-9.235869E-01
-9.234052E-01
-9.215836E-01
-9.204201E-01
-9.183086E-01
-9.204489E-01
-9.214412E-01
-9.201777E-01
-9.202682E-01
-9.189582E-01
-9.186040E-01
-9.206522E-01
-9.194426E-01
-9.182286E-01
-9.155217E-01
-9.160171E-01
-9.201340E-01
-9.219220E-01
-9.227269E-01
-9.218761E-01
-9.226132E-01
-9.235164E-01
-9.225918E-01
-9.228182E-01
-9.219591E-01
-9.212758E-01
-9.192965E-01
-9.183086E-01
-9.150787E-01
-9.170668E-01
-9.181066E-01
-9.172802E-01
-9.172674E-01
-9.163853E-01
-9.156323E-01
-9.176953E-01
-9.168008E-01
-9.152510E-01
-9.132454E-01
-9.139210E-01
-9.139109E-01
-9.182286E-01
-9.194426E-01
-9.206522E-01
-9.198744E-01
-9.204489E-01
-9.214412E-01
-9.207735E-01
-9.201777E-01
-9.202682E-01
-9.189582E-01
-9.186040E-01
-9.160171E-01
-9.150787E-01
-9.124746E-01
-9.155370E-01
-9.158966E-01
-9.163597E-01
-9.153764E-01
-9.156167E-01
-9.134629E-01
-9.130645E-01
-9.137942E-01
-9.126092E-01
-9.098238E-01
-9.107472E-01
-9.105582E-01
-9.152510E-01
-9.168008E-01
-9.176953E-01
-9.184972E-01
-9.170668E-01
-9.181066E-01
-9.172802E-01
-9.172674E-01
-9.163853E-01
-9.156323E-01
-9.139109E-01
-9.124746E-01
-9.097144E-01
-9.125312E-01
-9.128958E-01
-9.133054E-01
-9.117903E-01
-9.120795E-01
-9.104744E-01
-9.097118E-01
-9.118888E-01
-9.116826E-01
-9.096943E-01
-9.089262E-01
-9.066024E-01
-9.079711E-01
-9.126092E-01
-9.139210E-01
-9.137942E-01
-9.155370E-01
-9.155217E-01
-9.158966E-01
-9.163597E-01
-9.153764E-01
-9.156167E-01
-9.134629E-01
-9.130645E-01
-9.105582E-01
-9.097144E-01
-9.062406E-01
-9.095303E-01
-9.098652E-01
-9.106397E-01
-9.101442E-01
-9.098595E-01
-9.080987E-01
-9.075863E-01
-9.082530E-01
-9.084069E-01
-9.060128E-01
-9.055970E-01
-9.039607E-01
-9.045476E-01
-9.096943E-01
-9.118888E-01
-9.107472E-01
-9.116826E-01
-9.125312E-01
-9.132454E-01
-9.128958E-01
-9.133054E-01
-9.117903E-01
-9.120795E-01
-9.104744E-01
-9.097118E-01
-9.079711E-01
-9.062406E-01
-9.036611E-01
-9.083354E-01
-9.068813E-01
-9.072478E-01
-9.076130E-01
-9.067915E-01
-9.067152E-01
-9.043172E-01
-9.038550E-01
-9.068826E-01
-9.052920E-01
-9.037365E-01
-9.005104E-01
-9.014752E-01
-9.060128E-01
-9.082530E-01
-9.089262E-01
-9.084069E-01
-9.095303E-01
-9.098238E-01
-9.098652E-01
-9.106397E-01
-9.101442E-01
-9.098595E-01
-9.080987E-01
-9.075863E-01
-9.045476E-01
-9.036611E-01
-8.999646E-01
-9.044942E-01
-9.029927E-01
-9.038781E-01
-9.042603E-01
-9.037443E-01
-9.035486E-01
-9.021992E-01
-9.011674E-01
-9.034517E-01
-9.022911E-01
-9.002844E-01
-8.978687E-01
-8.986943E-01
-8.986332E-01
-9.037365E-01
-9.052920E-01
-9.068826E-01
-9.055970E-01
-9.068813E-01
-9.083354E-01
-9.066024E-01
-9.072478E-01
-9.076130E-01
-9.067915E-01
-9.067152E-01
-9.043172E-01
-9.038550E-01
-9.014752E-01
-8.999646E-01
-8.973695E-01
-9.026542E-01
-9.018006E-01
-9.010873E-01
-9.018836E-01
-9.025937E-01
-9.006274E-01
-9.005083E-01
-8.985027E-01
-8.979407E-01
-8.988112E-01
-8.972835E-01
-8.939393E-01
-8.950492E-01
-8.946656E-01
-9.002844E-01
-9.022911E-01
-9.034517E-01
-9.039607E-01
-9.029927E-01
-9.044942E-01
-9.038781E-01
-9.042603E-01
-9.037443E-01
-9.035486E-01
-9.021992E-01
-9.011674E-01
-8.986332E-01
-8.973695E-01
-8.934531E-01
-8.991300E-01
-8.984479E-01
-8.976090E-01
-8.977972E-01
-8.985564E-01
-8.971718E-01
-8.968118E-01
-8.954462E-01
-8.942808E-01
-8.965349E-01
-8.964932E-01
-8.938931E-01
-8.929358E-01
-8.902473E-01
-8.920807E-01
-8.972835E-01
-8.986943E-01
-8.988112E-01
-9.010873E-01
-9.005104E-01
-9.018006E-01
-9.026542E-01
-9.018836E-01
-9.025937E-01
-9.006274E-01
-9.005083E-01
-8.985027E-01
-8.979407E-01
-8.946656E-01
-8.934531E-01
-8.903043E-01
-8.962674E-01
-8.949467E-01
-8.942563E-01
-8.961367E-01
-8.962513E-01
-8.947131E-01
-8.946776E-01
-8.918373E-01
-8.912342E-01
-8.923960E-01
-8.927492E-01
-8.897089E-01
-8.891380E-01
-8.872464E-01
-8.880493E-01
-8.938931E-01
-8.965349E-01
-8.950492E-01
-8.964932E-01
-8.976090E-01
-8.978687E-01
-8.984479E-01
-8.991300E-01
-8.977972E-01
-8.985564E-01
-8.971718E-01
-8.968118E-01
-8.954462E-01
-8.942808E-01
-8.920807E-01
-8.903043E-01
-8.870029E-01
-8.927713E-01
-8.930413E-01
-8.921323E-01
-8.911289E-01
-8.924402E-01
-8.926421E-01
-8.904388E-01
-8.904539E-01
-8.883041E-01
-8.872028E-01
-8.909282E-01
-8.889605E-01
-8.870672E-01
-8.833297E-01
-8.849909E-01
-8.897089E-01
-8.923960E-01
-8.929358E-01
-8.927492E-01
-8.942563E-01
-8.939393E-01
-8.949467E-01
-8.962674E-01
-8.961367E-01
-8.962513E-01
-8.947131E-01
-8.946776E-01
-8.918373E-01
-8.912342E-01
-8.880493E-01
-8.870029E-01
-8.828586E-01
-8.890748E-01
-8.887028E-01
-8.882985E-01
-8.867432E-01
-8.889262E-01
-8.892882E-01
-8.883140E-01
-8.876892E-01
-8.853872E-01
-8.846061E-01
-8.870317E-01
-8.856077E-01
-8.831489E-01
-8.803288E-01
-8.813026E-01
-8.808987E-01
-8.870672E-01
-8.889605E-01
-8.909282E-01
-8.891380E-01
-8.911289E-01
-8.930413E-01
-8.902473E-01
-8.921323E-01
-8.927713E-01
-8.924402E-01
-8.926421E-01
-8.904388E-01
-8.904539E-01
-8.883041E-01
-8.872028E-01
-8.849909E-01
-8.828586E-01
-8.798131E-01
-8.873963E-01
-8.862180E-01
-8.867742E-01
-8.855321E-01
-8.844669E-01
-8.856222E-01
-8.857828E-01
-8.842826E-01
-8.840037E-01
-8.809353E-01
-8.802062E-01
-8.816629E-01
-8.797962E-01
-8.759013E-01
-8.771950E-01
-8.772964E-01
-8.831489E-01
-8.856077E-01
-8.870317E-01
-8.872464E-01
-8.867432E-01
-8.887028E-01
-8.882985E-01
-8.890748E-01
-8.889262E-01
-8.892882E-01
-8.883140E-01
-8.876892E-01
-8.853872E-01
-8.846061E-01
-8.808987E-01
-8.798131E-01
-8.754565E-01
-8.828686E-01
-8.816412E-01
-8.827885E-01
-8.818356E-01
-8.805245E-01
-8.817078E-01
-8.817514E-01
-8.807641E-01
-8.801667E-01
-8.783512E-01
-8.769886E-01
-8.790212E-01
-8.791441E-01
-8.759384E-01
-8.747943E-01
-8.717474E-01
-8.739283E-01
-8.797962E-01
-8.813026E-01
-8.816629E-01
-8.844669E-01
-8.833297E-01
-8.855321E-01
-8.867742E-01
-8.862180E-01
-8.873963E-01
-8.856222E-01
-8.857828E-01
-8.842826E-01
-8.840037E-01
-8.809353E-01
-8.802062E-01
-8.772964E-01
-8.754565E-01
-8.724036E-01
-8.804839E-01
-8.799704E-01
-8.797358E-01
-8.778721E-01
-8.768280E-01
-8.791721E-01
-8.796135E-01
-8.769786E-01
-8.766603E-01
-8.739946E-01
-8.732358E-01
-8.743891E-01
-8.749409E-01
-8.712617E-01
-8.705370E-01
-8.683947E-01
-8.693095E-01
-8.759384E-01
-8.790212E-01
-8.771950E-01
-8.791441E-01
-8.805245E-01
-8.803288E-01
-8.818356E-01
-8.827885E-01
-8.816412E-01
-8.828686E-01
-8.817078E-01
-8.817514E-01
-8.807641E-01
-8.801667E-01
-8.783512E-01
-8.769886E-01
-8.739283E-01
-8.724036E-01
-8.678380E-01
-8.764185E-01
-8.759390E-01
-8.757788E-01
-8.755958E-01
-8.748676E-01
-8.732298E-01
-8.744152E-01
-8.749076E-01
-8.729930E-01
-8.723038E-01
-8.704803E-01
-8.689248E-01
-8.728274E-01
-8.704874E-01
-8.682608E-01
-8.640210E-01
-8.662724E-01
-8.712617E-01
-8.743891E-01
-8.747943E-01
-8.749409E-01
-8.768280E-01
-8.759013E-01
-8.778721E-01
-8.797358E-01
-8.799704E-01
-8.804839E-01
-8.791721E-01
-8.796135E-01
-8.769786E-01
-8.766603E-01
-8.739946E-01
-8.732358E-01
-8.693095E-01
-8.678380E-01
-8.641753E-01
-8.728854E-01
-8.719665E-01
-8.717474E-01
-8.707704E-01
-8.705789E-01
-8.683574E-01
-8.722887E-01
-8.720725E-01
-8.700082E-01
-8.697116E-01
-8.662222E-01
-8.654259E-01
-8.684747E-01
-8.667908E-01
-8.638858E-01
-8.606682E-01
-8.617878E-01
-8.616011E-01
-8.682608E-01
-8.704874E-01
-8.728274E-01
-8.705370E-01
-8.732298E-01
-8.755958E-01
-8.717474E-01
-8.748676E-01
-8.757788E-01
-8.759390E-01
-8.764185E-01
-8.744152E-01
-8.749076E-01
-8.729930E-01
-8.723038E-01
-8.704803E-01
-8.689248E-01
-8.662724E-01
-8.641753E-01
-8.603641E-01
-8.689233E-01
-8.700611E-01
-8.684835E-01
-8.684175E-01
-8.687579E-01
-8.671302E-01
-8.657157E-01
-8.679322E-01
-8.679372E-01
-8.650828E-01
-8.648388E-01
-8.621750E-01
-8.607547E-01
-8.623906E-01
-8.601893E-01
-8.557531E-01
-8.572275E-01
-8.580993E-01
-8.638858E-01
-8.667908E-01
-8.684747E-01
-8.683947E-01
-8.683574E-01
-8.707704E-01
-8.705789E-01
-8.717474E-01
-8.719665E-01
-8.728854E-01
-8.722887E-01
-8.720725E-01
-8.700082E-01
-8.697116E-01
-8.662222E-01
-8.654259E-01
-8.616011E-01
-8.603641E-01
-8.555895E-01
-8.645667E-01
-8.650539E-01
-8.641197E-01
-8.633612E-01
-8.643203E-01
-8.630988E-01
-8.613186E-01
-8.639602E-01
-8.639322E-01
-8.625057E-01
-8.615601E-01
-8.587484E-01
-8.577145E-01
-8.593898E-01
-8.596771E-01
-8.558735E-01
-8.545453E-01
-8.511475E-01
-8.533791E-01
-8.601893E-01
-8.617878E-01
-8.623906E-01
-8.657157E-01
-8.640210E-01
-8.671302E-01
-8.687579E-01
-8.684175E-01
-8.700611E-01
-8.684835E-01
-8.689233E-01
-8.679322E-01
-8.679372E-01
-8.650828E-01
-8.648388E-01
-8.621750E-01
-8.607547E-01
-8.580993E-01
-8.555895E-01
-8.521067E-01
-8.624304E-01
-8.615131E-01
-8.625954E-01
-8.616841E-01
-8.610849E-01
-8.586827E-01
-8.572872E-01
-8.600071E-01
-8.599745E-01
-8.578344E-01
-8.573649E-01
-8.536662E-01
-8.526865E-01
-8.542757E-01
-8.550247E-01
-8.507155E-01
-8.498388E-01
-8.474510E-01
-8.492800E-01
-8.558735E-01
-8.593898E-01
-8.572275E-01
-8.596771E-01
-8.613186E-01
-8.606682E-01
-8.630988E-01
-8.643203E-01
-8.633612E-01
-8.650539E-01
-8.641197E-01
-8.645667E-01
-8.639602E-01
-8.639322E-01
-8.625057E-01
-8.615601E-01
-8.587484E-01
-8.577145E-01
-8.533791E-01
-8.521067E-01
-8.471320E-01
-8.572535E-01
-8.562851E-01
-8.580836E-01
-8.573275E-01
-8.566765E-01
-8.560410E-01
-8.554953E-01
-8.532269E-01
-8.555787E-01
-8.553032E-01
-8.538725E-01
-8.528976E-01
-8.506448E-01
-8.489722E-01
-8.526240E-01
-8.499172E-01
-8.473627E-01
-8.426307E-01
-8.454197E-01
-8.507155E-01
-8.542757E-01
-8.545453E-01
-8.550247E-01
-8.572872E-01
-8.557531E-01
-8.586827E-01
-8.610849E-01
-8.616841E-01
-8.625954E-01
-8.615131E-01
-8.624304E-01
-8.600071E-01
-8.599745E-01
-8.578344E-01
-8.573649E-01
-8.536662E-01
-8.526865E-01
-8.492800E-01
-8.471320E-01
-8.436512E-01
-8.543549E-01
-8.541621E-01
-8.543798E-01
-8.529062E-01
-8.523199E-01
-8.507402E-01
-8.507620E-01
-8.478797E-01
-8.525333E-01
-8.527219E-01
-8.494589E-01
-8.489539E-01
-8.456701E-01
-8.447272E-01
-8.478255E-01
-8.458858E-01
-8.425416E-01
-8.389342E-01
-8.401969E-01
-8.401931E-01
-8.473627E-01
-8.499172E-01
-8.526240E-01
-8.498388E-01
-8.532269E-01
-8.560410E-01
-8.511475E-01
-8.554953E-01
-8.566765E-01
-8.573275E-01
-8.580836E-01
-8.562851E-01
-8.572535E-01
-8.555787E-01
-8.553032E-01
-8.538725E-01
-8.528976E-01
-8.506448E-01
-8.489722E-01
-8.454197E-01
-8.436512E-01
-8.384800E-01
-8.497797E-01
-8.494908E-01
-8.499705E-01
-8.506299E-01
-8.492525E-01
-8.485249E-01
-8.486486E-01
-8.466393E-01
-8.448789E-01
-8.471462E-01
-8.473879E-01
-8.449766E-01
-8.439792E-01
-8.417278E-01
-8.398084E-01
-8.410408E-01
-8.385102E-01
-8.335433E-01
-8.351948E-01
-8.367346E-01
-8.425416E-01
-8.458858E-01
-8.478255E-01
-8.474510E-01
-8.478797E-01
-8.507402E-01
-8.507620E-01
-8.523199E-01
-8.529062E-01
-8.543798E-01
-8.541621E-01
-8.543549E-01
-8.525333E-01
-8.527219E-01
-8.494589E-01
-8.489539E-01
-8.456701E-01
-8.447272E-01
-8.401931E-01
-8.384800E-01
-8.343391E-01
-8.456163E-01
-8.450749E-01
-8.452992E-01
-8.451553E-01
-8.444499E-01
-8.430014E-01
-8.437698E-01
-8.422828E-01
-8.400378E-01
-8.445823E-01
-8.440561E-01
-8.414996E-01
-8.409592E-01
-8.368643E-01
-8.358881E-01
-8.376880E-01
-8.381390E-01
-8.337467E-01
-8.322376E-01
-8.284970E-01
-8.314685E-01
-8.385102E-01
-8.401969E-01
-8.410408E-01
-8.448789E-01
-8.426307E-01
-8.466393E-01
-8.486486E-01
-8.485249E-01
-8.506299E-01
-8.492525E-01
-8.499705E-01
-8.494908E-01
-8.497797E-01
-8.471462E-01
-8.473879E-01
-8.449766E-01
-8.439792E-01
-8.417278E-01
-8.398084E-01
-8.367346E-01
-8.343391E-01
-8.300544E-01
-8.412169E-01
-8.431695E-01
-8.409638E-01
-8.417787E-01
-8.426288E-01
-8.413219E-01
-8.403596E-01
-8.374247E-01
-8.356812E-01
-8.396076E-01
-8.394286E-01
-8.359663E-01
-8.354808E-01
-8.323388E-01
-8.306220E-01
-8.321042E-01
-8.330487E-01
-8.281198E-01
-8.270932E-01
-8.244656E-01
-8.275553E-01
-8.337467E-01
-8.376880E-01
-8.351948E-01
-8.381390E-01
-8.400378E-01
-8.389342E-01
-8.422828E-01
-8.437698E-01
-8.430014E-01
-8.451553E-01
-8.444499E-01
-8.452992E-01
-8.450749E-01
-8.456163E-01
-8.445823E-01
-8.440561E-01
-8.414996E-01
-8.409592E-01
-8.368643E-01
-8.358881E-01
-8.314685E-01
-8.300544E-01
-8.246959E-01
-8.362422E-01
-8.375343E-01
-8.361033E-01
-8.360921E-01
-8.376814E-01
-8.366507E-01
-8.355103E-01
-8.344238E-01
-8.340620E-01
-8.311686E-01
-8.352078E-01
-8.348157E-01
-8.329678E-01
-8.317239E-01
-8.284387E-01
-8.271706E-01
-8.303665E-01
-8.272995E-01
-8.244233E-01
-8.192105E-01
-8.222536E-01
-8.281198E-01
-8.321042E-01
-8.322376E-01
-8.330487E-01
-8.356812E-01
-8.335433E-01
-8.374247E-01
-8.403596E-01
-8.413219E-01
-8.426288E-01
-8.417787E-01
-8.431695E-01
-8.409638E-01
-8.412169E-01
-8.396076E-01
-8.394286E-01
-8.359663E-01
-8.354808E-01
-8.323388E-01
-8.306220E-01
-8.275553E-01
-8.246959E-01
-8.208086E-01
-8.336779E-01
-8.330045E-01
-8.345790E-01
-8.339776E-01
-8.338158E-01
-8.317911E-01
-8.308391E-01
-8.286606E-01
-8.288956E-01
-8.253594E-01
-8.306492E-01
-8.304367E-01
-8.277017E-01
-8.270552E-01
-8.227726E-01
-8.215610E-01
-8.251339E-01
-8.229429E-01
-8.191676E-01
-8.151791E-01
-8.165818E-01
-8.176959E-01
-8.244233E-01
-8.272995E-01
-8.303665E-01
-8.270932E-01
-8.311686E-01
-8.344238E-01
-8.284970E-01
-8.340620E-01
-8.355103E-01
-8.366507E-01
-8.376814E-01
-8.360921E-01
-8.375343E-01
-8.361033E-01
-8.362422E-01
-8.352078E-01
-8.348157E-01
-8.329678E-01
-8.317239E-01
-8.284387E-01
-8.271706E-01
-8.222536E-01
-8.208086E-01
-8.152638E-01
-8.278956E-01
-8.271687E-01
-8.295750E-01
-8.290030E-01
-8.289700E-01
-8.291494E-01
-8.279756E-01
-8.265881E-01
-8.264949E-01
-8.241089E-01
-8.220067E-01
-8.257425E-01
-8.251706E-01
-8.233285E-01
-8.220040E-01
-8.193467E-01
-8.173881E-01
-8.176648E-01
-8.148110E-01
-8.093255E-01
-8.111502E-01
-8.133820E-01
-8.191676E-01
-8.229429E-01
-8.251339E-01
-8.244656E-01
-8.253594E-01
-8.286606E-01
-8.288956E-01
-8.308391E-01
-8.317911E-01
-8.338158E-01
-8.339776E-01
-8.345790E-01
-8.330045E-01
-8.336779E-01
-8.306492E-01
-8.304367E-01
-8.277017E-01
-8.270552E-01
-8.227726E-01
-8.215610E-01
-8.176959E-01
-8.152638E-01
-8.113892E-01
-8.245186E-01
-8.246242E-01
-8.252633E-01
-8.241537E-01
-8.239954E-01
-8.232206E-01
-8.227457E-01
-8.206106E-01
-8.211867E-01
-8.194376E-01
-8.167333E-01
-8.222236E-01
-8.221779E-01
-8.183335E-01
-8.176559E-01
-8.138019E-01
-8.126894E-01
-8.139682E-01
-8.145818E-01
-8.096114E-01
-8.079250E-01
-8.038507E-01
-8.075967E-01
-8.148110E-01
-8.165818E-01
-8.176648E-01
-8.220067E-01
-8.192105E-01
-8.241089E-01
-8.264949E-01
-8.265881E-01
-8.291494E-01
-8.279756E-01
-8.289700E-01
-8.290030E-01
-8.295750E-01
-8.271687E-01
-8.278956E-01
-8.257425E-01
-8.251706E-01
-8.233285E-01
-8.220040E-01
-8.193467E-01
-8.173881E-01
-8.133820E-01
-8.113892E-01
-8.056620E-01
-8.194700E-01
-8.193581E-01
-8.204327E-01
-8.218774E-01
-8.198946E-01
-8.200163E-01
-8.206322E-01
-8.189329E-01
-8.176098E-01
-8.141492E-01
-8.120620E-01
-8.162525E-01
-8.162624E-01
-8.133924E-01
-8.121110E-01
-8.094658E-01
-8.072120E-01
-8.079282E-01
-8.090658E-01
-8.035292E-01
-8.023551E-01
-7.994941E-01
-8.037517E-01
-8.096114E-01
-8.139682E-01
-8.111502E-01
-8.145818E-01
-8.167333E-01
-8.151791E-01
-8.194376E-01
-8.211867E-01
-8.206106E-01
-8.232206E-01
-8.227457E-01
-8.239954E-01