# vtk DataFile Version 2.0
Grille
ASCII
DATASET POLYDATA
POINTS 481 float
0.000000E+00 8.750000E-01 -9.134611E-01
6.250000E-02 8.750000E-01 -8.993030E-01
1.250000E-01 8.750000E-01 -8.451473E-01
1.250000E-01 9.375000E-01 -8.993030E-01
1.250000E-01 1.000000E+00 -9.134611E-01
6.250000E-02 1.000000E+00 -9.735687E-01
0.000000E+00 1.000000E+00 -9.894798E-01
0.000000E+00 9.375000E-01 -9.735687E-01
3.750000E-02 9.125000E-01 -9.496659E-01
8.125000E-02 9.187500E-01 -9.283019E-01
8.750000E-02 9.625000E-01 -9.496659E-01
4.375000E-02 9.562500E-01 -9.750312E-01
1.875000E-01 8.750000E-01 -7.623793E-01
2.500000E-01 8.750000E-01 -6.469387E-01
2.500000E-01 9.375000E-01 -6.882897E-01
2.500000E-01 1.000000E+00 -6.978027E-01
1.875000E-01 1.000000E+00 -8.256780E-01
1.625000E-01 9.125000E-01 -8.351789E-01
2.062500E-01 9.187500E-01 -7.639574E-01
2.125000E-01 9.625000E-01 -7.739830E-01
1.687500E-01 9.562500E-01 -8.503020E-01
0.000000E+00 7.500000E-01 -6.978027E-01
6.250000E-02 7.500000E-01 -6.882897E-01
1.250000E-01 7.500000E-01 -6.469387E-01
1.250000E-01 8.125000E-01 -7.623793E-01
0.000000E+00 8.125000E-01 -8.256780E-01
3.750000E-02 7.875000E-01 -7.739830E-01
8.125000E-02 7.937500E-01 -7.639574E-01
8.750000E-02 8.375000E-01 -8.351789E-01
4.375000E-02 8.312500E-01 -8.503020E-01
1.875000E-01 7.500000E-01 -5.834798E-01
2.500000E-01 7.500000E-01 -4.953134E-01
2.500000E-01 8.125000E-01 -5.834798E-01
1.625000E-01 7.875000E-01 -6.806471E-01
2.062500E-01 7.937500E-01 -6.288289E-01
2.125000E-01 8.375000E-01 -6.806471E-01
1.687500E-01 8.312500E-01 -7.416435E-01
3.125000E-01 8.750000E-01 -5.093902E-01
3.750000E-01 8.750000E-01 -3.502395E-01
3.750000E-01 9.375000E-01 -3.724905E-01
3.750000E-01 1.000000E+00 -3.759101E-01
3.125000E-01 1.000000E+00 -5.520853E-01
2.875000E-01 9.125000E-01 -5.935434E-01
3.312500E-01 9.187500E-01 -4.833074E-01
3.375000E-01 9.625000E-01 -4.804682E-01
2.937500E-01 9.562500E-01 -5.961220E-01
4.375000E-01 8.750000E-01 -1.788511E-01
5.000000E-01 8.750000E-01 -2.194567E-04
5.000000E-01 9.375000E-01 1.696916E-05
5.000000E-01 1.000000E+00 3.211314E-03
4.375000E-01 1.000000E+00 -1.944427E-01
4.125000E-01 9.125000E-01 -2.615463E-01
4.562500E-01 9.187500E-01 -1.290782E-01
4.625000E-01 9.625000E-01 -1.138065E-01
4.187500E-01 9.562500E-01 -2.511878E-01
3.125000E-01 7.500000E-01 -3.898404E-01
3.750000E-01 7.500000E-01 -2.682811E-01
3.750000E-01 8.125000E-01 -3.157508E-01
2.875000E-01 7.875000E-01 -4.836888E-01
3.312500E-01 7.937500E-01 -3.979669E-01
3.375000E-01 8.375000E-01 -4.224930E-01
2.937500E-01 8.312500E-01 -5.200765E-01
4.375000E-01 7.500000E-01 -1.368514E-01
5.000000E-01 7.500000E-01 -4.055030E-04
5.000000E-01 8.125000E-01 4.832409E-05
4.125000E-01 7.875000E-01 -2.130932E-01
4.562500E-01 7.937500E-01 -1.065180E-01
4.625000E-01 8.375000E-01 -1.000181E-01
4.187500E-01 8.312500E-01 -2.193326E-01
0.000000E+00 6.250000E-01 -3.759101E-01
6.250000E-02 6.250000E-01 -3.724905E-01
1.250000E-01 6.250000E-01 -3.502395E-01
1.250000E-01 6.875000E-01 -5.093902E-01
0.000000E+00 6.875000E-01 -5.520853E-01
3.750000E-02 6.625000E-01 -4.804682E-01
8.125000E-02 6.687500E-01 -4.833074E-01
8.750000E-02 7.125000E-01 -5.935434E-01
4.375000E-02 7.062500E-01 -5.961220E-01
1.875000E-01 6.250000E-01 -3.157508E-01
2.500000E-01 6.250000E-01 -2.682811E-01
2.500000E-01 6.875000E-01 -3.898404E-01
1.625000E-01 6.625000E-01 -4.224930E-01
2.062500E-01 6.687500E-01 -3.979669E-01
2.125000E-01 7.125000E-01 -4.836888E-01
1.687500E-01 7.062500E-01 -5.200765E-01
0.000000E+00 5.000000E-01 3.211314E-03
6.250000E-02 5.000000E-01 1.696916E-05
1.250000E-01 5.000000E-01 -2.194567E-04
1.250000E-01 5.625000E-01 -1.788511E-01
0.000000E+00 5.625000E-01 -1.944427E-01
3.750000E-02 5.375000E-01 -1.138065E-01
8.125000E-02 5.437500E-01 -1.290782E-01
8.750000E-02 5.875000E-01 -2.615463E-01
4.375000E-02 5.812500E-01 -2.511878E-01
1.875000E-01 5.000000E-01 4.832409E-05
2.500000E-01 5.000000E-01 -4.055030E-04
2.500000E-01 5.625000E-01 -1.368514E-01
1.625000E-01 5.375000E-01 -1.000181E-01
2.062500E-01 5.437500E-01 -1.065180E-01
2.125000E-01 5.875000E-01 -2.130932E-01
1.687500E-01 5.812500E-01 -2.193326E-01
3.125000E-01 6.250000E-01 -2.109410E-01
3.750000E-01 6.250000E-01 -1.454794E-01
3.750000E-01 6.875000E-01 -2.109410E-01
2.875000E-01 6.625000E-01 -3.001970E-01
3.312500E-01 6.687500E-01 -2.520395E-01
3.375000E-01 7.125000E-01 -3.001970E-01
2.937500E-01 7.062500E-01 -3.648541E-01
4.375000E-01 6.250000E-01 -7.401727E-02
5.000000E-01 6.250000E-01 -5.298153E-04
5.000000E-01 6.875000E-01 7.232211E-05
4.125000E-01 6.625000E-01 -1.321987E-01
4.562500E-01 6.687500E-01 -6.774138E-02
4.625000E-01 7.125000E-01 -7.100286E-02
4.187500E-01 7.062500E-01 -1.540860E-01
3.125000E-01 5.000000E-01 7.232211E-05
3.750000E-01 5.000000E-01 -5.298153E-04
3.750000E-01 5.625000E-01 -7.401727E-02
2.875000E-01 5.375000E-01 -7.100286E-02
3.312500E-01 5.437500E-01 -6.774138E-02
3.375000E-01 5.875000E-01 -1.321987E-01
2.937500E-01 5.812500E-01 -1.540860E-01
4.375000E-01 5.000000E-01 8.530975E-05
5.000000E-01 5.000000E-01 -5.734679E-04
5.000000E-01 5.625000E-01 8.530975E-05
4.125000E-01 5.375000E-01 -3.117808E-02
4.562500E-01 5.437500E-01 -1.865178E-02
4.625000E-01 5.875000E-01 -3.117808E-02
4.187500E-01 5.812500E-01 -6.538113E-02
5.625000E-01 8.750000E-01 1.789164E-01
6.250000E-01 8.750000E-01 3.498340E-01
6.250000E-01 9.375000E-01 3.725219E-01
6.250000E-01 1.000000E+00 3.818439E-01
5.625000E-01 1.000000E+00 1.928022E-01
5.375000E-01 9.125000E-01 1.102689E-01
5.812500E-01 9.187500E-01 2.448020E-01
5.875000E-01 9.625000E-01 2.701813E-01
5.437500E-01 9.562500E-01 1.319874E-01
6.875000E-01 8.750000E-01 5.094456E-01
7.500000E-01 8.750000E-01 6.466283E-01
7.500000E-01 9.375000E-01 6.883137E-01
7.500000E-01 1.000000E+00 7.023442E-01
6.875000E-01 1.000000E+00 5.506946E-01
6.625000E-01 9.125000E-01 4.652966E-01
7.062500E-01 9.187500E-01 5.814133E-01
7.125000E-01 9.625000E-01 6.130364E-01
6.687500E-01 9.562500E-01 4.950687E-01
5.625000E-01 7.500000E-01 1.369720E-01
6.250000E-01 7.500000E-01 2.675319E-01
6.250000E-01 8.125000E-01 3.158401E-01
5.375000E-01 7.875000E-01 8.994382E-02
5.812500E-01 7.937500E-01 2.011473E-01
5.875000E-01 8.375000E-01 2.376836E-01
5.437500E-01 8.312500E-01 1.148027E-01
6.875000E-01 7.500000E-01 3.899427E-01
7.500000E-01 7.500000E-01 4.947399E-01
7.500000E-01 8.125000E-01 5.835482E-01
6.625000E-01 7.875000E-01 3.792877E-01
7.062500E-01 7.937500E-01 4.781897E-01
7.125000E-01 8.375000E-01 5.392001E-01
6.687500E-01 8.312500E-01 4.314604E-01
8.125000E-01 8.750000E-01 7.624163E-01
8.750000E-01 8.750000E-01 8.449794E-01
8.750000E-01 9.375000E-01 8.993160E-01
8.750000E-01 1.000000E+00 9.159189E-01
8.125000E-01 1.000000E+00 8.247488E-01
7.875000E-01 9.125000E-01 7.494871E-01
8.312500E-01 9.187500E-01 8.295097E-01
8.375000E-01 9.625000E-01 8.625622E-01
7.937500E-01 9.562500E-01 7.827804E-01
9.375000E-01 8.750000E-01 8.993160E-01
1.000000E+00 8.750000E-01 9.159189E-01
1.000000E+00 9.375000E-01 9.732424E-01
1.000000E+00 1.000000E+00 9.906268E-01
9.375000E-01 1.000000E+00 9.732424E-01
9.125000E-01 9.125000E-01 9.195750E-01
9.562500E-01 9.187500E-01 9.513208E-01
9.625000E-01 9.625000E-01 9.807708E-01
9.187500E-01 9.562500E-01 9.513208E-01
8.125000E-01 7.500000E-01 5.835482E-01
8.750000E-01 7.500000E-01 6.466283E-01
8.750000E-01 8.125000E-01 7.624163E-01
7.875000E-01 7.875000E-01 6.108885E-01
8.312500E-01 7.937500E-01 6.824321E-01
8.375000E-01 8.375000E-01 7.586283E-01
7.937500E-01 8.312500E-01 6.824321E-01
9.375000E-01 7.500000E-01 6.883137E-01
1.000000E+00 7.500000E-01 7.023442E-01
1.000000E+00 8.125000E-01 8.247488E-01
9.125000E-01 7.875000E-01 7.494871E-01
9.562500E-01 7.937500E-01 7.827804E-01
9.625000E-01 8.375000E-01 8.625622E-01
9.187500E-01 8.312500E-01 8.295097E-01
5.625000E-01 6.250000E-01 7.417490E-02
6.250000E-01 6.250000E-01 1.445005E-01
6.250000E-01 6.875000E-01 2.110746E-01
5.375000E-01 6.625000E-01 5.592563E-02
5.812500E-01 6.687500E-01 1.268697E-01
5.875000E-01 7.125000E-01 1.690008E-01
5.437500E-01 7.062500E-01 8.014038E-02
6.875000E-01 6.250000E-01 2.110746E-01
7.500000E-01 6.250000E-01 2.675319E-01
7.500000E-01 6.875000E-01 3.899427E-01
6.625000E-01 6.625000E-01 2.355358E-01
7.062500E-01 6.687500E-01 3.021661E-01
7.125000E-01 7.125000E-01 3.832756E-01
6.687500E-01 7.062500E-01 3.021661E-01
5.625000E-01 5.000000E-01 8.530975E-05
6.250000E-01 5.000000E-01 -5.298153E-04
6.250000E-01 5.625000E-01 7.417490E-02
5.375000E-01 5.375000E-01 1.339328E-02
5.812500E-01 5.437500E-01 3.327739E-02
5.875000E-01 5.875000E-01 7.458910E-02
5.437500E-01 5.812500E-01 3.327739E-02
6.875000E-01 5.000000E-01 7.232211E-05
7.500000E-01 5.000000E-01 -4.055030E-04
7.500000E-01 5.625000E-01 1.369720E-01
6.625000E-01 5.375000E-01 5.592563E-02
7.062500E-01 5.437500E-01 8.014038E-02
7.125000E-01 5.875000E-01 1.690008E-01
6.687500E-01 5.812500E-01 1.268697E-01
8.125000E-01 6.250000E-01 3.158401E-01
8.750000E-01 6.250000E-01 3.498340E-01
8.750000E-01 6.875000E-01 5.094456E-01
7.875000E-01 6.625000E-01 3.792877E-01
8.312500E-01 6.687500E-01 4.314604E-01
8.375000E-01 7.125000E-01 5.392001E-01
7.937500E-01 7.062500E-01 4.781897E-01
9.375000E-01 6.250000E-01 3.725219E-01
1.000000E+00 6.250000E-01 3.818439E-01
1.000000E+00 6.875000E-01 5.506946E-01
9.125000E-01 6.625000E-01 4.652966E-01
9.562500E-01 6.687500E-01 4.950687E-01
9.625000E-01 7.125000E-01 6.130364E-01
9.187500E-01 7.062500E-01 5.814133E-01
8.125000E-01 5.000000E-01 4.832409E-05
8.750000E-01 5.000000E-01 -2.194567E-04
8.750000E-01 5.625000E-01 1.789164E-01
7.875000E-01 5.375000E-01 8.994382E-02
8.312500E-01 5.437500E-01 1.148027E-01
8.375000E-01 5.875000E-01 2.376836E-01
7.937500E-01 5.812500E-01 2.011473E-01
9.375000E-01 5.000000E-01 1.696916E-05
1.000000E+00 5.000000E-01 3.211314E-03
1.000000E+00 5.625000E-01 1.928022E-01
9.125000E-01 5.375000E-01 1.102689E-01
9.562500E-01 5.437500E-01 1.319874E-01
9.625000E-01 5.875000E-01 2.701813E-01
9.187500E-01 5.812500E-01 2.448020E-01
0.000000E+00 3.750000E-01 3.818439E-01
6.250000E-02 3.750000E-01 3.725219E-01
[...]
CELL_DATA 896
SCALARS sol float 1
LOOKUP_TABLE default
-9.301045E-01
-9.333139E-01
-9.550620E-01
-8.968177E-01
-9.585030E-01
-9.004619E-01
-9.732036E-01
-8.718602E-01
-8.673529E-01
-9.585030E-01
-9.004619E-01
-8.679931E-01
-9.894798E-01
-8.225044E-01
-8.225342E-01
-9.732036E-01
-9.333139E-01
-8.679931E-01
-8.218776E-01
-9.894798E-01
-8.025566E-01
-7.740977E-01
-7.936463E-01
-9.550620E-01
-9.301045E-01
-8.218776E-01
-8.673529E-01
-7.902569E-01
-7.487978E-01
-7.279822E-01
-7.323339E-01
-8.968177E-01
-7.936463E-01
-7.902569E-01
-8.225342E-01
-7.330381E-01
-7.073764E-01
-6.676232E-01
-7.035069E-01
-8.718602E-01
-7.323339E-01
-7.330381E-01
-8.025566E-01
-6.887455E-01
-6.487801E-01
-6.215077E-01
-6.294557E-01
-6.432541E-01
-8.225044E-01
-7.073764E-01
-7.035069E-01
-6.887455E-01
-7.487978E-01
-6.367358E-01
-5.885272E-01
-5.465863E-01
-5.613421E-01
-5.883442E-01
-7.740977E-01
-6.487801E-01
-6.432541E-01
-6.367358E-01
-7.279822E-01
-5.753485E-01
-5.331533E-01
-5.633866E-01
-5.244283E-01
-4.752840E-01
-5.319735E-01
-5.885272E-01
-6.294557E-01
-5.883442E-01
-5.753485E-01
-6.676232E-01
-5.258136E-01
-4.527148E-01
-4.871249E-01
-4.502840E-01
-4.150312E-01
-4.700791E-01
-5.331533E-01
-5.633866E-01
-5.613421E-01
-5.319735E-01
-5.258136E-01
-6.215077E-01
-4.605964E-01
-4.065993E-01
-4.319182E-01
-4.501016E-01
-3.367891E-01
-4.277366E-01
-4.527148E-01
-4.871249E-01
-5.244283E-01
-4.700791E-01
-4.605964E-01
-5.465863E-01
-4.194951E-01
-3.307962E-01
-3.667010E-01
-3.828881E-01
-2.765363E-01
-2.957295E-01
-3.557290E-01
-4.065993E-01
-4.319182E-01
-4.501016E-01
-4.502840E-01
-4.277366E-01
-4.194951E-01
-4.752840E-01
-3.535032E-01
-2.655790E-01
-2.968614E-01
-3.307715E-01
-1.874555E-01
-2.146907E-01
-3.227967E-01
-3.307962E-01
-3.667010E-01
-3.828881E-01
-4.150312E-01
-3.557290E-01
-3.535032E-01
-3.072509E-01
-2.507459E-01
-1.914926E-01
-2.499207E-01
-2.680699E-01
-1.664606E-01
-1.041127E-01
-2.625439E-01
-2.655790E-01
-2.957295E-01
-2.968614E-01
-3.307715E-01
-3.367891E-01
-3.227967E-01
-3.072509E-01
-2.572009E-01
-1.670514E-01
-1.041739E-01
-1.798475E-01
-2.078171E-01
-8.321860E-02
-3.889548E-02
-2.117392E-01
-1.914926E-01
-2.507459E-01
-2.146907E-01
-2.499207E-01
-2.680699E-01
-2.765363E-01
-2.625439E-01
-2.572009E-01
-2.045867E-01
-1.429337E-01
-9.457384E-02
-4.392109E-02
-1.536184E-01
-1.867817E-01
4.531810E-02
-1.660638E-01
-1.041739E-01
-1.670514E-01
-1.664606E-01
-1.798475E-01
-2.078171E-01
-1.874555E-01
-2.117392E-01
-2.045867E-01
-1.645324E-01
-7.074905E-02
-3.432103E-02
3.754844E-02
-8.195299E-02
-1.212152E-01
1.105353E-01
8.301887E-02
-1.176241E-01
-4.392109E-02
-9.457384E-02
-1.429337E-01
-8.321860E-02
-1.536184E-01
-1.867817E-01
-1.041127E-01
-1.660638E-01
-1.645324E-01
-1.184169E-01
-3.583748E-02
3.981585E-02
9.780125E-02
-7.063702E-02
-9.764648E-02
2.002138E-01
1.646453E-01
-9.235715E-02
3.754844E-02
-3.432103E-02
-7.074905E-02
-3.889548E-02
-8.195299E-02
-1.212152E-01
-1.176241E-01
-1.184169E-01
-9.438172E-02
3.048499E-02
1.000687E-01
7.018027E-02
1.793212E-01
-2.452152E-02
-4.750860E-02
2.168493E-01
2.829089E-01
-4.725548E-02
9.780125E-02
8.301887E-02
3.981585E-02
-3.583748E-02
4.531810E-02
-7.063702E-02
-9.764648E-02
-9.235715E-02
-9.438172E-02
-5.692512E-02
7.660050E-02
1.784542E-01
1.377643E-01
2.602265E-01
2.825199E-02
-2.229795E-02
2.965161E-01
3.431617E-01
-3.594636E-02
1.793212E-01
1.000687E-01
1.646453E-01
7.018027E-02
3.048499E-02
1.105353E-01
-2.452152E-02
-4.750860E-02
-4.725548E-02
-5.692512E-02
-3.749345E-02
7.436750E-02
1.438869E-01
1.859945E-01
2.571685E-01
3.254437E-01
4.665737E-02
1.878048E-02
4.205260E-01
-1.098883E-02
2.602265E-01
1.784542E-01
2.168493E-01
1.377643E-01
7.660050E-02
2.002138E-01
2.825199E-02
-2.229795E-02
-3.594636E-02
-3.749345E-02
-1.703539E-02
1.295267E-01
2.042996E-01
2.521609E-01
3.032840E-01
4.001766E-01
8.990997E-02
4.373802E-02
4.807788E-01
4.491283E-01
1.238703E-02
3.254437E-01
2.571685E-01
1.859945E-01
2.965161E-01
1.438869E-01
7.436750E-02
2.829089E-01
4.665737E-02
1.878048E-02
-1.098883E-02
-1.703539E-02
-5.363751E-03
1.268237E-01
1.922765E-01
2.645524E-01
3.704315E-01
4.462921E-01
8.654709E-02
3.734456E-02
5.574023E-01
5.189157E-01
1.603130E-02
4.001766E-01
3.032840E-01
2.521609E-01
3.431617E-01
2.042996E-01
1.295267E-01
8.990997E-02
4.373802E-02
1.238703E-02
-5.363751E-03
4.216815E-03
1.694164E-01
2.172341E-01
3.243988E-01
4.356487E-01
3.795969E-01
5.228349E-01
1.172700E-01
6.087984E-02
5.671458E-01
6.268602E-01
2.836761E-02
4.462921E-01
4.491283E-01
3.704315E-01
2.645524E-01
4.205260E-01
1.922765E-01
1.268237E-01
8.654709E-02
3.734456E-02
1.603130E-02
4.216815E-03
4.216815E-03
1.633855E-01
2.639421E-01
3.493564E-01
4.967918E-01
4.344028E-01
5.850098E-01
9.811220E-02
4.834520E-02
6.311089E-01
6.729757E-01
1.603130E-02
5.228349E-01
4.356487E-01
5.189157E-01
3.795969E-01
3.243988E-01
4.807788E-01
2.172341E-01
1.694164E-01
1.172700E-01
6.087984E-02
2.836761E-02
4.216815E-03
-5.363751E-03
1.992342E-01
3.241949E-01
2.522753E-01
4.194867E-01
4.866067E-01
5.697593E-01
6.452626E-01
9.811220E-02
6.087984E-02
7.317126E-01
1.238703E-02
5.850098E-01
4.967918E-01
5.671458E-01
4.344028E-01
3.493564E-01
5.574023E-01
2.639421E-01
1.633855E-01
9.811220E-02
4.834520E-02
1.603130E-02
-5.363751E-03
-1.703539E-02
1.992342E-01
3.605493E-01
2.837560E-01
4.594495E-01
5.366816E-01
5.947168E-01
7.018816E-01
1.172700E-01
3.734456E-02
7.778282E-01
7.468621E-01
-1.098883E-02
6.452626E-01
5.697593E-01
4.866067E-01
6.311089E-01
4.194867E-01
3.241949E-01
6.268602E-01
2.522753E-01
1.992342E-01
9.811220E-02
6.087984E-02
1.238703E-02
-1.703539E-02
-3.749345E-02
1.633855E-01
2.522753E-01
3.319862E-01
4.259177E-01
5.246666E-01
6.446523E-01
7.268391E-01
8.654709E-02
4.373802E-02
8.297314E-01
7.941858E-01
-3.594636E-02
7.018816E-01
5.947168E-01
5.366816E-01
6.729757E-01
4.594495E-01
3.605493E-01
2.837560E-01
1.992342E-01
1.172700E-01
3.734456E-02
-1.098883E-02
-3.749345E-02
-5.692512E-02
1.694164E-01
2.639421E-01
3.605493E-01
4.259177E-01
5.689259E-01
7.049051E-01
6.312234E-01
7.867518E-01
8.990997E-02
1.878048E-02
8.310995E-01
8.753776E-01
-4.725548E-02
7.268391E-01
7.468621E-01
6.446523E-01
5.246666E-01
7.317126E-01
4.259177E-01
3.319862E-01
2.522753E-01
1.633855E-01
8.654709E-02
4.373802E-02
-3.594636E-02
-5.692512E-02
-9.438172E-02
1.268237E-01
2.172341E-01
3.241949E-01
4.594495E-01
5.689259E-01
7.394974E-01
6.649073E-01
8.207306E-01
4.665737E-02
-2.229795E-02
8.696211E-01
9.003352E-01
-9.235715E-02
7.867518E-01
7.049051E-01
7.941858E-01
6.312234E-01
5.689259E-01
7.778282E-01
4.259177E-01
3.605493E-01
2.639421E-01
1.694164E-01
8.990997E-02
1.878048E-02
-4.725548E-02
-9.438172E-02
-1.184169E-01
1.295267E-01
1.922765E-01
3.493564E-01
5.246666E-01
4.194867E-01
6.312234E-01
7.131375E-01
7.956094E-01
8.668461E-01
2.825199E-02
-4.750860E-02
9.315027E-01
-1.176241E-01
8.207306E-01
7.394974E-01
8.310995E-01
6.649073E-01
5.689259E-01
8.297314E-01
4.594495E-01
3.241949E-01
2.172341E-01
1.268237E-01
4.665737E-02
-2.229795E-02
-9.235715E-02
-1.184169E-01
-1.645324E-01
7.436750E-02
2.042996E-01
3.243988E-01
5.366816E-01
4.344028E-01
6.446523E-01
7.394974E-01
7.956094E-01
8.967314E-01
-2.452152E-02
-9.764648E-02
9.564602E-01
9.308928E-01
-1.660638E-01
8.668461E-01
7.956094E-01
7.131375E-01
8.696211E-01
6.312234E-01
5.246666E-01
8.753776E-01
4.194867E-01
3.493564E-01
1.922765E-01
1.295267E-01
2.825199E-02
-4.750860E-02
-1.176241E-01
-1.645324E-01
-2.045867E-01
7.660050E-02
2.645524E-01
1.438869E-01
3.795969E-01
4.866067E-01
5.947168E-01
7.049051E-01
8.207306E-01
8.967314E-01
-7.063702E-02
-1.212152E-01
9.757414E-01
9.485483E-01
-2.117392E-01
8.967314E-01
7.956094E-01
7.394974E-01
9.003352E-01
6.446523E-01
5.366816E-01
4.344028E-01
3.243988E-01
2.042996E-01
7.436750E-02
-2.452152E-02
-9.764648E-02
-1.660638E-01
-2.045867E-01
-2.572009E-01
3.048499E-02
2.521609E-01
1.377643E-01
3.704315E-01
4.967918E-01
5.697593E-01
7.268391E-01
8.668461E-01
7.867518E-01
9.308928E-01
-8.195299E-02
-1.867817E-01
9.685259E-01
9.906268E-01
-2.625439E-01
8.967314E-01
9.308928E-01
8.207306E-01
7.049051E-01
9.315027E-01
5.947168E-01
4.866067E-01
3.795969E-01
2.645524E-01
1.438869E-01
7.660050E-02
-7.063702E-02
-1.212152E-01
-2.117392E-01
-2.572009E-01
-3.072509E-01
7.018027E-02
-3.583748E-02
1.859945E-01
3.032840E-01
4.356487E-01
5.850098E-01
7.018816E-01
8.696211E-01
7.941858E-01
9.315027E-01
-1.536184E-01
-2.078171E-01
9.757414E-01
9.906268E-01
-3.227967E-01
9.308928E-01
8.668461E-01
9.485483E-01
7.867518E-01
7.268391E-01
9.564602E-01
5.697593E-01
4.967918E-01
3.704315E-01
2.521609E-01
1.377643E-01
3.048499E-02
-8.195299E-02
-1.867817E-01
-2.625439E-01
-3.072509E-01
-3.535032E-01
3.981585E-02
-7.074905E-02
1.784542E-01
2.571685E-01
4.462921E-01
6.452626E-01
5.228349E-01
7.468621E-01
8.310995E-01
9.003352E-01
9.564602E-01
-1.798475E-01
-2.680699E-01
-3.557290E-01
9.315027E-01
8.696211E-01
9.685259E-01
7.941858E-01
7.018816E-01
9.757414E-01
5.850098E-01
4.356487E-01
3.032840E-01
1.859945E-01
7.018027E-02
-3.583748E-02
-1.536184E-01
-2.078171E-01
-3.227967E-01
-3.535032E-01
-4.194951E-01
1.000687E-01
-3.432103E-02
-1.429337E-01
2.602265E-01
4.001766E-01
6.311089E-01
5.189157E-01
7.317126E-01
8.297314E-01
8.753776E-01
-2.499207E-01
-3.307715E-01
-4.277366E-01
9.564602E-01
9.003352E-01
8.310995E-01
9.757414E-01
7.468621E-01
6.452626E-01
9.906268E-01
5.228349E-01
4.462921E-01
2.571685E-01
1.784542E-01
3.981585E-02
-7.074905E-02
-1.798475E-01
-2.680699E-01
-3.557290E-01
-4.194951E-01
-4.605964E-01
9.780125E-02
-9.457384E-02
-1.670514E-01
3.254437E-01
1.793212E-01
4.491283E-01
5.671458E-01
6.729757E-01
7.778282E-01
-2.968614E-01
-3.828881E-01
-4.700791E-01
8.753776E-01
8.297314E-01
9.906268E-01
7.317126E-01
6.311089E-01
5.189157E-01
4.001766E-01
2.602265E-01
1.000687E-01
-3.432103E-02
-1.429337E-01
-2.499207E-01
-3.307715E-01
-4.277366E-01
-4.605964E-01
-5.258136E-01
3.754844E-02
-1.041739E-01
-2.507459E-01
2.965161E-01
1.646453E-01
4.205260E-01
5.574023E-01
6.268602E-01
-3.667010E-01
-4.501016E-01
-5.319735E-01
7.778282E-01
6.729757E-01
5.671458E-01
4.491283E-01
3.254437E-01
1.793212E-01
9.780125E-02
-9.457384E-02
-1.670514E-01
-2.968614E-01
-3.828881E-01
-4.700791E-01
-5.258136E-01
-5.753485E-01
8.301887E-02
-4.392109E-02
-1.914926E-01
-2.655790E-01
2.168493E-01
3.431617E-01
4.807788E-01
-4.319182E-01
-4.871249E-01
-5.883442E-01
6.268602E-01
5.574023E-01
4.205260E-01
2.965161E-01
1.646453E-01
3.754844E-02
-1.041739E-01
-2.507459E-01
-3.667010E-01
-4.501016E-01
-5.319735E-01
-5.753485E-01
-6.367358E-01
4.531810E-02
-8.321860E-02
-2.146907E-01
-3.307962E-01
2.002138E-01
2.829089E-01
-4.527148E-01
-5.633866E-01
-6.432541E-01
4.807788E-01
3.431617E-01
2.168493E-01
8.301887E-02
-4.392109E-02
-1.914926E-01
-2.655790E-01
-4.319182E-01
-4.871249E-01
-5.883442E-01
-6.367358E-01
-6.887455E-01
1.105353E-01
-3.889548E-02
-1.664606E-01
-2.957295E-01
-4.065993E-01
-5.331533E-01
-5.885272E-01
-7.035069E-01
2.829089E-01
2.002138E-01
4.531810E-02
-8.321860E-02
-2.146907E-01
-3.307962E-01
-4.527148E-01
-5.633866E-01
-6.432541E-01
-6.887455E-01
-7.330381E-01
-1.041127E-01
-1.874555E-01
-3.367891E-01
-4.502840E-01
-5.613421E-01
-6.487801E-01
-7.323339E-01
1.105353E-01
-3.889548E-02
-1.664606E-01
-2.957295E-01
-4.065993E-01
-5.331533E-01
-5.885272E-01
-7.035069E-01
-7.330381E-01
-7.902569E-01
-2.765363E-01
-4.150312E-01
-5.244283E-01
-6.294557E-01
-7.073764E-01
-7.936463E-01
-1.041127E-01
-1.874555E-01
-3.367891E-01
-4.502840E-01
-5.613421E-01
-6.487801E-01
-7.323339E-01
-7.902569E-01
-8.218776E-01
-4.752840E-01
-5.465863E-01
-6.676232E-01
-7.487978E-01
-8.225342E-01
-2.765363E-01
-4.150312E-01
-5.244283E-01
-6.294557E-01
-7.073764E-01
-7.936463E-01
-8.218776E-01
-8.679931E-01
-6.215077E-01
-7.279822E-01
-8.025566E-01
-8.673529E-01
-4.752840E-01
-5.465863E-01
-6.676232E-01
-7.487978E-01
-8.225342E-01
-8.679931E-01
-9.004619E-01
-7.740977E-01
-8.225044E-01
-8.968177E-01
-6.215077E-01
-7.279822E-01
-8.025566E-01
-8.673529E-01
-9.004619E-01
-9.333139E-01
-8.718602E-01
-9.301045E-01
-7.740977E-01
-8.225044E-01
-8.968177E-01
-9.333139E-01
-9.585030E-01
-9.550620E-01
-8.718602E-01
-9.301045E-01
-9.585030E-01
-9.732036E-01
-9.550620E-01
-9.732036E-01
-9.894798E-01
-9.894798E-01
