# vtk DataFile Version 2.0
Grille
ASCII
DATASET POLYDATA
POINTS 481 float
0.000000E+00 8.750000E-01 -6.294029E-01
6.250000E-02 8.750000E-01 -6.196475E-01
1.250000E-01 8.750000E-01 -5.823326E-01
1.250000E-01 9.375000E-01 -6.196475E-01
1.250000E-01 1.000000E+00 -6.294029E-01
6.250000E-02 1.000000E+00 -6.708189E-01
0.000000E+00 1.000000E+00 -6.817822E-01
0.000000E+00 9.375000E-01 -6.708189E-01
3.750000E-02 9.125000E-01 -6.543492E-01
8.125000E-02 9.187500E-01 -6.396287E-01
8.750000E-02 9.625000E-01 -6.543492E-01
4.375000E-02 9.562500E-01 -6.718266E-01
1.875000E-01 8.750000E-01 -5.253029E-01
2.500000E-01 8.750000E-01 -4.457607E-01
2.500000E-01 9.375000E-01 -4.742529E-01
2.500000E-01 1.000000E+00 -4.808076E-01
1.875000E-01 1.000000E+00 -5.689177E-01
1.625000E-01 9.125000E-01 -5.754640E-01
2.062500E-01 9.187500E-01 -5.263903E-01
2.125000E-01 9.625000E-01 -5.332982E-01
1.687500E-01 9.562500E-01 -5.858843E-01
0.000000E+00 7.500000E-01 -4.808076E-01
6.250000E-02 7.500000E-01 -4.742529E-01
1.250000E-01 7.500000E-01 -4.457607E-01
1.250000E-01 8.125000E-01 -5.253029E-01
0.000000E+00 8.125000E-01 -5.689177E-01
3.750000E-02 7.875000E-01 -5.332982E-01
8.125000E-02 7.937500E-01 -5.263903E-01
8.750000E-02 8.375000E-01 -5.754640E-01
4.375000E-02 8.312500E-01 -5.858843E-01
1.875000E-01 7.500000E-01 -4.020356E-01
2.500000E-01 7.500000E-01 -3.412862E-01
2.500000E-01 8.125000E-01 -4.020356E-01
1.625000E-01 7.875000E-01 -4.689869E-01
2.062500E-01 7.937500E-01 -4.332825E-01
2.125000E-01 8.375000E-01 -4.689869E-01
1.687500E-01 8.312500E-01 -5.110153E-01
3.125000E-01 8.750000E-01 -3.509856E-01
3.750000E-01 8.750000E-01 -2.413258E-01
3.750000E-01 9.375000E-01 -2.566575E-01
3.750000E-01 1.000000E+00 -2.590137E-01
3.125000E-01 1.000000E+00 -3.804039E-01
2.875000E-01 9.125000E-01 -4.089697E-01
3.312500E-01 9.187500E-01 -3.330137E-01
3.375000E-01 9.625000E-01 -3.310575E-01
2.937500E-01 9.562500E-01 -4.107465E-01
4.375000E-01 8.750000E-01 -1.232340E-01
5.000000E-01 8.750000E-01 -1.512124E-04
5.000000E-01 9.375000E-01 1.169228E-05
5.000000E-01 1.000000E+00 2.212694E-03
4.375000E-01 1.000000E+00 -1.339770E-01
4.125000E-01 9.125000E-01 -1.802135E-01
4.562500E-01 9.187500E-01 -8.893885E-02
4.625000E-01 9.625000E-01 -7.841619E-02
4.187500E-01 9.562500E-01 -1.730762E-01
3.125000E-01 7.500000E-01 -2.686121E-01
3.750000E-01 7.500000E-01 -1.848540E-01
3.750000E-01 8.125000E-01 -2.175621E-01
2.875000E-01 7.875000E-01 -3.332765E-01
3.312500E-01 7.937500E-01 -2.742115E-01
3.375000E-01 8.375000E-01 -2.911107E-01
2.937500E-01 8.312500E-01 -3.583488E-01
4.375000E-01 7.500000E-01 -9.429484E-02
5.000000E-01 7.500000E-01 -2.794041E-04
5.000000E-01 8.125000E-01 3.329679E-05
4.125000E-01 7.875000E-01 -1.468278E-01
4.562500E-01 7.937500E-01 -7.339418E-02
4.625000E-01 8.375000E-01 -6.891556E-02
4.187500E-01 8.312500E-01 -1.511269E-01
0.000000E+00 6.250000E-01 -2.590137E-01
6.250000E-02 6.250000E-01 -2.566575E-01
1.250000E-01 6.250000E-01 -2.413258E-01
1.250000E-01 6.875000E-01 -3.509856E-01
0.000000E+00 6.875000E-01 -3.804039E-01
3.750000E-02 6.625000E-01 -3.310575E-01
8.125000E-02 6.687500E-01 -3.330137E-01
8.750000E-02 7.125000E-01 -4.089697E-01
4.375000E-02 7.062500E-01 -4.107465E-01
1.875000E-01 6.250000E-01 -2.175621E-01
2.500000E-01 6.250000E-01 -1.848540E-01
2.500000E-01 6.875000E-01 -2.686121E-01
1.625000E-01 6.625000E-01 -2.911107E-01
2.062500E-01 6.687500E-01 -2.742115E-01
2.125000E-01 7.125000E-01 -3.332765E-01
1.687500E-01 7.062500E-01 -3.583488E-01
0.000000E+00 5.000000E-01 2.212694E-03
6.250000E-02 5.000000E-01 1.169228E-05
1.250000E-01 5.000000E-01 -1.512124E-04
1.250000E-01 5.625000E-01 -1.232340E-01
0.000000E+00 5.625000E-01 -1.339770E-01
3.750000E-02 5.375000E-01 -7.841619E-02
8.125000E-02 5.437500E-01 -8.893885E-02
8.750000E-02 5.875000E-01 -1.802135E-01
4.375000E-02 5.812500E-01 -1.730762E-01
1.875000E-01 5.000000E-01 3.329679E-05
2.500000E-01 5.000000E-01 -2.794041E-04
2.500000E-01 5.625000E-01 -9.429484E-02
1.625000E-01 5.375000E-01 -6.891556E-02
2.062500E-01 5.437500E-01 -7.339418E-02
2.125000E-01 5.875000E-01 -1.468278E-01
1.687500E-01 5.812500E-01 -1.511269E-01
3.125000E-01 6.250000E-01 -1.453449E-01
3.750000E-01 6.250000E-01 -1.002398E-01
3.750000E-01 6.875000E-01 -1.453449E-01
2.875000E-01 6.625000E-01 -2.068450E-01
3.312500E-01 6.687500E-01 -1.736630E-01
3.375000E-01 7.125000E-01 -2.068450E-01
2.937500E-01 7.062500E-01 -2.513958E-01
4.375000E-01 6.250000E-01 -5.100019E-02
5.000000E-01 6.250000E-01 -3.650591E-04
5.000000E-01 6.875000E-01 4.983217E-05
4.125000E-01 6.625000E-01 -9.108898E-02
4.562500E-01 6.687500E-01 -4.667591E-02
4.625000E-01 7.125000E-01 -4.892317E-02
4.187500E-01 7.062500E-01 -1.061700E-01
3.125000E-01 5.000000E-01 4.983217E-05
3.750000E-01 5.000000E-01 -3.650591E-04
3.750000E-01 5.625000E-01 -5.100019E-02
2.875000E-01 5.375000E-01 -4.892317E-02
3.312500E-01 5.437500E-01 -4.667591E-02
3.375000E-01 5.875000E-01 -9.108898E-02
2.937500E-01 5.812500E-01 -1.061700E-01
4.375000E-01 5.000000E-01 5.878105E-05
5.000000E-01 5.000000E-01 -3.951371E-04
5.000000E-01 5.625000E-01 5.878105E-05
4.125000E-01 5.375000E-01 -2.148266E-02
4.562500E-01 5.437500E-01 -1.285165E-02
4.625000E-01 5.875000E-01 -2.148266E-02
4.187500E-01 5.812500E-01 -4.504962E-02
5.625000E-01 8.750000E-01 1.232789E-01
6.250000E-01 8.750000E-01 2.410464E-01
6.250000E-01 9.375000E-01 2.566791E-01
6.250000E-01 1.000000E+00 2.631022E-01
5.625000E-01 1.000000E+00 1.328466E-01
5.375000E-01 9.125000E-01 7.597866E-02
5.812500E-01 9.187500E-01 1.686761E-01
5.875000E-01 9.625000E-01 1.861632E-01
5.437500E-01 9.562500E-01 9.094339E-02
6.875000E-01 8.750000E-01 3.510237E-01
7.500000E-01 8.750000E-01 4.455469E-01
7.500000E-01 9.375000E-01 4.742694E-01
7.500000E-01 1.000000E+00 4.839368E-01
6.875000E-01 1.000000E+00 3.794456E-01
6.625000E-01 9.125000E-01 3.206037E-01
7.062500E-01 9.187500E-01 4.006117E-01
7.125000E-01 9.625000E-01 4.224010E-01
6.687500E-01 9.562500E-01 3.411177E-01
5.625000E-01 7.500000E-01 9.437797E-02
6.250000E-01 7.500000E-01 1.843377E-01
6.250000E-01 8.125000E-01 2.176236E-01
5.375000E-01 7.875000E-01 6.197407E-02
5.812500E-01 7.937500E-01 1.385967E-01
5.875000E-01 8.375000E-01 1.637713E-01
5.437500E-01 8.312500E-01 7.910262E-02
6.875000E-01 7.500000E-01 2.686826E-01
7.500000E-01 7.500000E-01 3.408911E-01
7.500000E-01 8.125000E-01 4.020827E-01
6.625000E-01 7.875000E-01 2.613410E-01
7.062500E-01 7.937500E-01 3.294875E-01
7.125000E-01 8.375000E-01 3.715255E-01
6.687500E-01 8.312500E-01 2.972895E-01
8.125000E-01 8.750000E-01 5.253284E-01
8.750000E-01 8.750000E-01 5.822169E-01
8.750000E-01 9.375000E-01 6.196565E-01
8.750000E-01 1.000000E+00 6.310964E-01
8.125000E-01 1.000000E+00 5.682774E-01
7.875000E-01 9.125000E-01 5.164198E-01
8.312500E-01 9.187500E-01 5.715578E-01
8.375000E-01 9.625000E-01 5.943320E-01
7.937500E-01 9.562500E-01 5.393598E-01
9.375000E-01 8.750000E-01 6.196565E-01
1.000000E+00 8.750000E-01 6.310964E-01
1.000000E+00 9.375000E-01 6.705941E-01
1.000000E+00 1.000000E+00 6.825725E-01
9.375000E-01 1.000000E+00 6.705941E-01
9.125000E-01 9.125000E-01 6.336156E-01
9.562500E-01 9.187500E-01 6.554894E-01
9.625000E-01 9.625000E-01 6.757814E-01
9.187500E-01 9.562500E-01 6.554894E-01
8.125000E-01 7.500000E-01 4.020827E-01
8.750000E-01 7.500000E-01 4.455469E-01
8.750000E-01 8.125000E-01 5.253284E-01
7.875000E-01 7.875000E-01 4.209211E-01
8.312500E-01 7.937500E-01 4.702168E-01
8.375000E-01 8.375000E-01 5.227183E-01
7.937500E-01 8.312500E-01 4.702168E-01
9.375000E-01 7.500000E-01 4.742694E-01
1.000000E+00 7.500000E-01 4.839368E-01
1.000000E+00 8.125000E-01 5.682774E-01
9.125000E-01 7.875000E-01 5.164198E-01
9.562500E-01 7.937500E-01 5.393598E-01
9.625000E-01 8.375000E-01 5.943320E-01
9.187500E-01 8.312500E-01 5.715578E-01
5.625000E-01 6.250000E-01 5.110880E-02
6.250000E-01 6.250000E-01 9.956528E-02
6.250000E-01 6.875000E-01 1.454369E-01
5.375000E-01 6.625000E-01 3.853449E-02
5.812500E-01 6.687500E-01 8.741716E-02
5.875000E-01 7.125000E-01 1.164467E-01
5.437500E-01 7.062500E-01 5.521920E-02
6.875000E-01 6.250000E-01 1.454369E-01
7.500000E-01 6.250000E-01 1.843377E-01
7.500000E-01 6.875000E-01 2.686826E-01
6.625000E-01 6.625000E-01 1.622914E-01
7.062500E-01 6.687500E-01 2.082018E-01
7.125000E-01 7.125000E-01 2.640887E-01
6.687500E-01 7.062500E-01 2.082018E-01
5.625000E-01 5.000000E-01 5.878105E-05
6.250000E-01 5.000000E-01 -3.650591E-04
6.250000E-01 5.625000E-01 5.110880E-02
5.375000E-01 5.375000E-01 9.228381E-03
5.812500E-01 5.437500E-01 2.292915E-02
5.875000E-01 5.875000E-01 5.139419E-02
5.437500E-01 5.812500E-01 2.292915E-02
6.875000E-01 5.000000E-01 4.983217E-05
7.500000E-01 5.000000E-01 -2.794041E-04
7.500000E-01 5.625000E-01 9.437797E-02
6.625000E-01 5.375000E-01 3.853449E-02
7.062500E-01 5.437500E-01 5.521920E-02
7.125000E-01 5.875000E-01 1.164467E-01
6.687500E-01 5.812500E-01 8.741716E-02
8.125000E-01 6.250000E-01 2.176236E-01
8.750000E-01 6.250000E-01 2.410464E-01
8.750000E-01 6.875000E-01 3.510237E-01
7.875000E-01 6.625000E-01 2.613410E-01
8.312500E-01 6.687500E-01 2.972895E-01
8.375000E-01 7.125000E-01 3.715255E-01
7.937500E-01 7.062500E-01 3.294875E-01
9.375000E-01 6.250000E-01 2.566791E-01
1.000000E+00 6.250000E-01 2.631022E-01
1.000000E+00 6.875000E-01 3.794456E-01
9.125000E-01 6.625000E-01 3.206037E-01
9.562500E-01 6.687500E-01 3.411177E-01
9.625000E-01 7.125000E-01 4.224010E-01
9.187500E-01 7.062500E-01 4.006117E-01
8.125000E-01 5.000000E-01 3.329679E-05
8.750000E-01 5.000000E-01 -1.512124E-04
8.750000E-01 5.625000E-01 1.232789E-01
7.875000E-01 5.375000E-01 6.197407E-02
8.312500E-01 5.437500E-01 7.910262E-02
8.375000E-01 5.875000E-01 1.637713E-01
7.937500E-01 5.812500E-01 1.385967E-01
9.375000E-01 5.000000E-01 1.169228E-05
1.000000E+00 5.000000E-01 2.212694E-03
1.000000E+00 5.625000E-01 1.328466E-01
9.125000E-01 5.375000E-01 7.597866E-02
9.562500E-01 5.437500E-01 9.094339E-02
9.625000E-01 5.875000E-01 1.861632E-01
9.187500E-01 5.812500E-01 1.686761E-01
0.000000E+00 3.750000E-01 2.631022E-01
6.250000E-02 3.750000E-01 2.566791E-01
[...]
CELL_DATA 896
SCALARS sol float 1
LOOKUP_TABLE default
-6.408707E-01
-6.430821E-01
-6.580672E-01
-6.179351E-01
-6.604381E-01
-6.204460E-01
-6.705673E-01
-6.007386E-01
-5.976330E-01
-6.604381E-01
-6.204460E-01
-5.980740E-01
-6.817822E-01
-5.667309E-01
-5.667515E-01
-6.705673E-01
-6.430821E-01
-5.980740E-01
-5.662990E-01
-6.817822E-01
-5.529863E-01
-5.333772E-01
-5.468468E-01
-6.580672E-01
-6.408707E-01
-5.662990E-01
-5.976330E-01
-5.445114E-01
-5.159448E-01
-5.016022E-01
-5.046007E-01
-6.179351E-01
-5.468468E-01
-5.445114E-01
-5.667515E-01
-5.050859E-01
-4.874042E-01
-4.600130E-01
-4.847380E-01
-6.007386E-01
-5.046007E-01
-5.050859E-01
-5.529863E-01
-4.745669E-01
-4.470295E-01
-4.282380E-01
-4.337144E-01
-4.432219E-01
-5.667309E-01
-4.874042E-01
-4.847380E-01
-4.745669E-01
-5.159448E-01
-4.387306E-01
-4.055134E-01
-3.766149E-01
-3.867820E-01
-4.053873E-01
-5.333772E-01
-4.470295E-01
-4.432219E-01
-4.387306E-01
-5.016022E-01
-3.964329E-01
-3.673591E-01
-3.881908E-01
-3.613473E-01
-3.274854E-01
-3.665462E-01
-4.055134E-01
-4.337144E-01
-4.053873E-01
-3.964329E-01
-4.600130E-01
-3.623018E-01
-3.119345E-01
-3.356441E-01
-3.102596E-01
-2.859693E-01
-3.238990E-01
-3.673591E-01
-3.881908E-01
-3.867820E-01
-3.665462E-01
-3.623018E-01
-4.282380E-01
-3.173651E-01
-2.801595E-01
-2.976050E-01
-3.101339E-01
-2.320581E-01
-2.947237E-01
-3.119345E-01
-3.356441E-01
-3.613473E-01
-3.238990E-01
-3.173651E-01
-3.766149E-01
-2.890451E-01
-2.279288E-01
-2.526683E-01
-2.638217E-01
-1.905420E-01
-2.037667E-01
-2.451083E-01
-2.801595E-01
-2.976050E-01
-3.101339E-01
-3.102596E-01
-2.947237E-01
-2.890451E-01
-3.274854E-01
-2.435746E-01
-1.829921E-01
-2.045467E-01
-2.279118E-01
-1.291626E-01
-1.479285E-01
-2.224169E-01
-2.279288E-01
-2.526683E-01
-2.638217E-01
-2.859693E-01
-2.451083E-01
-2.435746E-01
-2.117054E-01
-1.727717E-01
-1.319443E-01
-1.722031E-01
-1.847084E-01
-1.146965E-01
-7.173683E-02
-1.809009E-01
-1.829921E-01
-2.037667E-01
-2.045467E-01
-2.279118E-01
-2.320581E-01
-2.224169E-01
-2.117054E-01
-1.772193E-01
-1.151036E-01
-7.177904E-02
-1.239205E-01
-1.431924E-01
-5.734019E-02
-2.680018E-02
-1.458949E-01
-1.319443E-01
-1.727717E-01
-1.479285E-01
-1.722031E-01
-1.847084E-01
-1.905420E-01
-1.809009E-01
-1.772193E-01
-1.409666E-01
-9.848574E-02
-6.516430E-02
-3.026299E-02
-1.058478E-01
-1.286984E-01
3.122557E-02
-1.144231E-01
-7.177904E-02
-1.151036E-01
-1.146965E-01
-1.239205E-01
-1.431924E-01
-1.291626E-01
-1.458949E-01
-1.409666E-01
-1.133679E-01
-4.874828E-02
-2.364825E-02
2.587204E-02
-5.646814E-02
-8.352102E-02
7.616222E-02
5.720257E-02
-8.104661E-02
-3.026299E-02
-6.516430E-02
-9.848574E-02
-5.734019E-02
-1.058478E-01
-1.286984E-01
-7.173683E-02
-1.144231E-01
-1.133679E-01
-8.159290E-02
-2.469313E-02
2.743435E-02
6.738808E-02
-4.867109E-02
-6.728144E-02
1.379535E-01
1.134457E-01
-6.363693E-02
2.587204E-02
-2.364825E-02
-4.874828E-02
-2.680018E-02
-5.646814E-02
-8.352102E-02
-8.104661E-02
-8.159290E-02
-6.503192E-02
2.100510E-02
6.895040E-02
4.835638E-02
1.235578E-01
-1.689608E-02
-3.273489E-02
1.494159E-01
1.949330E-01
-3.256049E-02
6.738808E-02
5.720257E-02
2.743435E-02
-2.469313E-02
3.122557E-02
-4.867109E-02
-6.728144E-02
-6.363693E-02
-6.503192E-02
-3.922317E-02
5.278011E-02
1.229605E-01
9.492389E-02
1.793041E-01
1.946650E-02
-1.536397E-02
2.043088E-01
2.364490E-01
-2.476815E-02
1.235578E-01
6.895040E-02
1.134457E-01
4.835638E-02
2.100510E-02
7.616222E-02
-1.689608E-02
-3.273489E-02
-3.256049E-02
-3.922317E-02
-2.583415E-02
5.124151E-02
9.914251E-02
1.281559E-01
1.771970E-01
2.242407E-01
3.214837E-02
1.294033E-02
2.897554E-01
-7.571640E-03
1.793041E-01
1.229605E-01
1.494159E-01
9.492389E-02
5.278011E-02
1.379535E-01
1.946650E-02
-1.536397E-02
-2.476815E-02
-2.583415E-02
-1.173791E-02
8.924788E-02
1.407687E-01
1.737466E-01
2.089721E-01
2.757341E-01
6.195074E-02
3.013684E-02
3.312715E-01
3.094633E-01
8.535045E-03
2.242407E-01
1.771970E-01
1.281559E-01
2.043088E-01
9.914251E-02
5.124151E-02
1.949330E-01
3.214837E-02
1.294033E-02
-7.571640E-03
-1.173791E-02
-3.695790E-03
8.738546E-02
1.324845E-01
1.822848E-01
2.552387E-01
3.075091E-01
5.963362E-02
2.573156E-02
3.840674E-01
3.575489E-01
1.104606E-02
2.757341E-01
2.089721E-01
1.737466E-01
2.364490E-01
1.407687E-01
8.924788E-02
6.195074E-02
3.013684E-02
8.535045E-03
-3.695790E-03
2.905516E-03
1.167331E-01
1.496810E-01
2.235208E-01
3.001754E-01
2.615540E-01
3.602494E-01
8.080263E-02
4.194809E-02
3.907810E-01
4.319260E-01
1.954616E-02
3.075091E-01
3.094633E-01
2.552387E-01
1.822848E-01
2.897554E-01
1.324845E-01
8.738546E-02
5.963362E-02
2.573156E-02
1.104606E-02
2.905516E-03
2.905516E-03
1.125776E-01
1.818643E-01
2.407173E-01
3.423049E-01
2.993169E-01
4.030898E-01
6.760234E-02
3.331133E-02
4.348535E-01
4.637010E-01
1.104606E-02
3.602494E-01
3.001754E-01
3.575489E-01
2.615540E-01
2.235208E-01
3.312715E-01
1.496810E-01
1.167331E-01
8.080263E-02
4.194809E-02
1.954616E-02
2.905516E-03
-3.695790E-03
1.372785E-01
2.233803E-01
1.738255E-01
2.890393E-01
3.352871E-01
3.925817E-01
4.446059E-01
6.760234E-02
4.194809E-02
5.041726E-01
8.535045E-03
4.030898E-01
3.423049E-01
3.907810E-01
2.993169E-01
2.407173E-01
3.840674E-01
1.818643E-01
1.125776E-01
6.760234E-02
3.331133E-02
1.104606E-02
-3.695790E-03
-1.173791E-02
1.372785E-01
2.484296E-01
1.955167E-01
3.165749E-01
3.697902E-01
4.097783E-01
4.836181E-01
8.080263E-02
2.573156E-02
5.359476E-01
5.146110E-01
-7.571640E-03
4.446059E-01
3.925817E-01
3.352871E-01
4.348535E-01
2.890393E-01
2.233803E-01
4.319260E-01
1.738255E-01
1.372785E-01
6.760234E-02
4.194809E-02
8.535045E-03
-1.173791E-02
-2.583415E-02
1.125776E-01
1.738255E-01
2.287487E-01
2.934705E-01
3.615115E-01
4.441853E-01
5.008146E-01
5.963362E-02
3.013684E-02
5.717106E-01
5.472185E-01
-2.476815E-02
4.836181E-01
4.097783E-01
3.697902E-01
4.637010E-01
3.165749E-01
2.484296E-01
1.955167E-01
1.372785E-01
8.080263E-02
2.573156E-02
-7.571640E-03
-2.583415E-02
-3.922317E-02
1.167331E-01
1.818643E-01
2.484296E-01
2.934705E-01
3.920075E-01
4.857014E-01
4.349324E-01
5.420963E-01
6.195074E-02
1.294033E-02
5.726533E-01
6.031622E-01
-3.256049E-02
5.008146E-01
5.146110E-01
4.441853E-01
3.615115E-01
5.041726E-01
2.934705E-01
2.287487E-01
1.738255E-01
1.125776E-01
5.963362E-02
3.013684E-02
-2.476815E-02
-3.922317E-02
-6.503192E-02
8.738546E-02
1.496810E-01
2.233803E-01
3.165749E-01
3.920075E-01
5.095365E-01
4.581417E-01
5.655087E-01
3.214837E-02
-1.536397E-02
5.991958E-01
6.203587E-01
-6.363693E-02
5.420963E-01
4.857014E-01
5.472185E-01
4.349324E-01
3.920075E-01
5.359476E-01
2.934705E-01
2.484296E-01
1.818643E-01
1.167331E-01
6.195074E-02
1.294033E-02
-3.256049E-02
-6.503192E-02
-8.159290E-02
8.924788E-02
1.324845E-01
2.407173E-01
3.615115E-01
2.890393E-01
4.349324E-01
4.913738E-01
5.481994E-01
5.972838E-01
1.946650E-02
-3.273489E-02
6.418341E-01
-8.104661E-02
5.655087E-01
5.095365E-01
5.726533E-01
4.581417E-01
3.920075E-01
5.717106E-01
3.165749E-01
2.233803E-01
1.496810E-01
8.738546E-02
3.214837E-02
-1.536397E-02
-6.363693E-02
-8.159290E-02
-1.133679E-01
5.124151E-02
1.407687E-01
2.235208E-01
3.697902E-01
2.993169E-01
4.441853E-01
5.095365E-01
5.481994E-01
6.178756E-01
-1.689608E-02
-6.728144E-02
6.590306E-01
6.414139E-01
-1.144231E-01
5.972838E-01
5.481994E-01
4.913738E-01
5.991958E-01
4.349324E-01
3.615115E-01
6.031622E-01
2.890393E-01
2.407173E-01
1.324845E-01
8.924788E-02
1.946650E-02
-3.273489E-02
-8.104661E-02
-1.133679E-01
-1.409666E-01
5.278011E-02
1.822848E-01
9.914251E-02
2.615540E-01
3.352871E-01
4.097783E-01
4.857014E-01
5.655087E-01
6.178756E-01
-4.867109E-02
-8.352102E-02
6.723160E-01
6.535791E-01
-1.458949E-01
6.178756E-01
5.481994E-01
5.095365E-01
6.203587E-01
4.441853E-01
3.697902E-01
2.993169E-01
2.235208E-01
1.407687E-01
5.124151E-02
-1.689608E-02
-6.728144E-02
-1.144231E-01
-1.409666E-01
-1.772193E-01
2.100510E-02
1.737466E-01
9.492389E-02
2.552387E-01
3.423049E-01
3.925817E-01
5.008146E-01
5.972838E-01
5.420963E-01
6.414139E-01
-5.646814E-02
-1.286984E-01
6.673443E-01
6.825725E-01
-1.809009E-01
6.178756E-01
6.414139E-01
5.655087E-01
4.857014E-01
6.418341E-01
4.097783E-01
3.352871E-01
2.615540E-01
1.822848E-01
9.914251E-02
5.278011E-02
-4.867109E-02
-8.352102E-02
-1.458949E-01
-1.772193E-01
-2.117054E-01
4.835638E-02
-2.469313E-02
1.281559E-01
2.089721E-01
3.001754E-01
4.030898E-01
4.836181E-01
5.991958E-01
5.472185E-01
6.418341E-01
-1.058478E-01
-1.431924E-01
6.723160E-01
6.825725E-01
-2.224169E-01
6.414139E-01
5.972838E-01
6.535791E-01
5.420963E-01
5.008146E-01
6.590306E-01
3.925817E-01
3.423049E-01
2.552387E-01
1.737466E-01
9.492389E-02
2.100510E-02
-5.646814E-02
-1.286984E-01
-1.809009E-01
-2.117054E-01
-2.435746E-01
2.743435E-02
-4.874828E-02
1.229605E-01
1.771970E-01
3.075091E-01
4.446059E-01
3.602494E-01
5.146110E-01
5.726533E-01
6.203587E-01
6.590306E-01
-1.239205E-01
-1.847084E-01
-2.451083E-01
6.418341E-01
5.991958E-01
6.673443E-01
5.472185E-01
4.836181E-01
6.723160E-01
4.030898E-01
3.001754E-01
2.089721E-01
1.281559E-01
4.835638E-02
-2.469313E-02
-1.058478E-01
-1.431924E-01
-2.224169E-01
-2.435746E-01
-2.890451E-01
6.895040E-02
-2.364825E-02
-9.848574E-02
1.793041E-01
2.757341E-01
4.348535E-01
3.575489E-01
5.041726E-01
5.717106E-01
6.031622E-01
-1.722031E-01
-2.279118E-01
-2.947237E-01
6.590306E-01
6.203587E-01
5.726533E-01
6.723160E-01
5.146110E-01
4.446059E-01
6.825725E-01
3.602494E-01
3.075091E-01
1.771970E-01
1.229605E-01
2.743435E-02
-4.874828E-02
-1.239205E-01
-1.847084E-01
-2.451083E-01
-2.890451E-01
-3.173651E-01
6.738808E-02
-6.516430E-02
-1.151036E-01
2.242407E-01
1.235578E-01
3.094633E-01
3.907810E-01
4.637010E-01
5.359476E-01
-2.045467E-01
-2.638217E-01
-3.238990E-01
6.031622E-01
5.717106E-01
6.825725E-01
5.041726E-01
4.348535E-01
3.575489E-01
2.757341E-01
1.793041E-01
6.895040E-02
-2.364825E-02
-9.848574E-02
-1.722031E-01
-2.279118E-01
-2.947237E-01
-3.173651E-01
-3.623018E-01
2.587204E-02
-7.177904E-02
-1.727717E-01
2.043088E-01
1.134457E-01
2.897554E-01
3.840674E-01
4.319260E-01
-2.526683E-01
-3.101339E-01
-3.665462E-01
5.359476E-01
4.637010E-01
3.907810E-01
3.094633E-01
2.242407E-01
1.235578E-01
6.738808E-02
-6.516430E-02
-1.151036E-01
-2.045467E-01
-2.638217E-01
-3.238990E-01
-3.623018E-01
-3.964329E-01
5.720257E-02
-3.026299E-02
-1.319443E-01
-1.829921E-01
1.494159E-01
2.364490E-01
3.312715E-01
-2.976050E-01
-3.356441E-01
-4.053873E-01
4.319260E-01
3.840674E-01
2.897554E-01
2.043088E-01
1.134457E-01
2.587204E-02
-7.177904E-02
-1.727717E-01
-2.526683E-01
-3.101339E-01
-3.665462E-01
-3.964329E-01
-4.387306E-01
3.122557E-02
-5.734019E-02
-1.479285E-01
-2.279288E-01
1.379535E-01
1.949330E-01
-3.119345E-01
-3.881908E-01
-4.432219E-01
3.312715E-01
2.364490E-01
1.494159E-01
5.720257E-02
-3.026299E-02
-1.319443E-01
-1.829921E-01
-2.976050E-01
-3.356441E-01
-4.053873E-01
-4.387306E-01
-4.745669E-01
7.616222E-02
-2.680018E-02
-1.146965E-01
-2.037667E-01
-2.801595E-01
-3.673591E-01
-4.055134E-01
-4.847380E-01
1.949330E-01
1.379535E-01
3.122557E-02
-5.734019E-02
-1.479285E-01
-2.279288E-01
-3.119345E-01
-3.881908E-01
-4.432219E-01
-4.745669E-01
-5.050859E-01
-7.173683E-02
-1.291626E-01
-2.320581E-01
-3.102596E-01
-3.867820E-01
-4.470295E-01
-5.046007E-01
7.616222E-02
-2.680018E-02
-1.146965E-01
-2.037667E-01
-2.801595E-01
-3.673591E-01
-4.055134E-01
-4.847380E-01
-5.050859E-01
-5.445114E-01
-1.905420E-01
-2.859693E-01
-3.613473E-01
-4.337144E-01
-4.874042E-01
-5.468468E-01
-7.173683E-02
-1.291626E-01
-2.320581E-01
-3.102596E-01
-3.867820E-01
-4.470295E-01
-5.046007E-01
-5.445114E-01
-5.662990E-01
-3.274854E-01
-3.766149E-01
-4.600130E-01
-5.159448E-01
-5.667515E-01
-1.905420E-01
-2.859693E-01
-3.613473E-01
-4.337144E-01
-4.874042E-01
-5.468468E-01
-5.662990E-01
-5.980740E-01
-4.282380E-01
-5.016022E-01
-5.529863E-01
-5.976330E-01
-3.274854E-01
-3.766149E-01
-4.600130E-01
-5.159448E-01
-5.667515E-01
-5.980740E-01
-6.204460E-01
-5.333772E-01
-5.667309E-01
-6.179351E-01
-4.282380E-01
-5.016022E-01
-5.529863E-01
-5.976330E-01
-6.204460E-01
-6.430821E-01
-6.007386E-01
-6.408707E-01
-5.333772E-01
-5.667309E-01
-6.179351E-01
-6.430821E-01
-6.604381E-01
-6.580672E-01
-6.007386E-01
-6.408707E-01
-6.604381E-01
-6.705673E-01
-6.580672E-01
-6.705673E-01
-6.817822E-01
-6.817822E-01
