# vtk DataFile Version 2.0
Grille
ASCII
DATASET POLYDATA
POINTS 28929 float
0.000000E+00 9.843750E-01 -8.801115E-01
7.812500E-03 9.843750E-01 -8.798977E-01
1.562500E-02 9.843750E-01 -8.790691E-01
1.562500E-02 9.921875E-01 -8.798977E-01
1.562500E-02 1.000000E+00 -8.801115E-01
7.812500E-03 1.000000E+00 -8.809611E-01
0.000000E+00 1.000000E+00 -8.811827E-01
0.000000E+00 9.921875E-01 -8.809611E-01
4.687500E-03 9.890625E-01 -8.806244E-01
1.015625E-02 9.898438E-01 -8.803137E-01
1.093750E-02 9.953125E-01 -8.806244E-01
5.468750E-03 9.945312E-01 -8.809807E-01
2.343750E-02 9.843750E-01 -8.777779E-01
3.125000E-02 9.843750E-01 -8.758912E-01
3.125000E-02 9.921875E-01 -8.767168E-01
3.125000E-02 1.000000E+00 -8.769122E-01
2.343750E-02 1.000000E+00 -8.788434E-01
2.031250E-02 9.890625E-01 -8.789395E-01
2.578125E-02 9.898438E-01 -8.778595E-01
2.656250E-02 9.953125E-01 -8.780660E-01
2.109375E-02 9.945312E-01 -8.791919E-01
0.000000E+00 9.687500E-01 -8.769122E-01
7.812500E-03 9.687500E-01 -8.767168E-01
1.562500E-02 9.687500E-01 -8.758912E-01
1.562500E-02 9.765625E-01 -8.777779E-01
0.000000E+00 9.765625E-01 -8.788434E-01
4.687500E-03 9.734375E-01 -8.780660E-01
1.015625E-02 9.742188E-01 -8.778595E-01
1.093750E-02 9.796875E-01 -8.789395E-01
5.468750E-03 9.789062E-01 -8.791919E-01
2.343750E-02 9.687500E-01 -8.746047E-01
3.125000E-02 9.687500E-01 -8.727248E-01
3.125000E-02 9.765625E-01 -8.746047E-01
2.031250E-02 9.734375E-01 -8.763860E-01
2.578125E-02 9.742188E-01 -8.754122E-01
2.656250E-02 9.796875E-01 -8.763860E-01
2.109375E-02 9.789062E-01 -8.774067E-01
3.906250E-02 9.843750E-01 -8.735435E-01
4.687500E-02 9.843750E-01 -8.706032E-01
4.687500E-02 9.921875E-01 -8.714238E-01
4.687500E-02 1.000000E+00 -8.716002E-01
3.906250E-02 1.000000E+00 -8.746084E-01
3.593750E-02 9.890625E-01 -8.751373E-01
4.140625E-02 9.898438E-01 -8.732905E-01
4.218750E-02 9.953125E-01 -8.733923E-01
3.671875E-02 9.945312E-01 -8.752850E-01
5.468750E-02 9.843750E-01 -8.672047E-01
6.250000E-02 9.843750E-01 -8.632179E-01
6.250000E-02 9.921875E-01 -8.640315E-01
6.250000E-02 1.000000E+00 -8.641885E-01
5.468750E-02 1.000000E+00 -8.682664E-01
5.156250E-02 9.890625E-01 -8.692267E-01
5.703125E-02 9.898438E-01 -8.666177E-01
5.781250E-02 9.953125E-01 -8.666145E-01
5.234375E-02 9.945312E-01 -8.692695E-01
3.906250E-02 9.687500E-01 -8.703856E-01
4.687500E-02 9.687500E-01 -8.674560E-01
4.687500E-02 9.765625E-01 -8.693244E-01
3.593750E-02 9.734375E-01 -8.725948E-01
4.140625E-02 9.742188E-01 -8.708560E-01
4.218750E-02 9.796875E-01 -8.717213E-01
3.671875E-02 9.789062E-01 -8.735078E-01
5.468750E-02 9.687500E-01 -8.640697E-01
6.250000E-02 9.687500E-01 -8.600973E-01
6.250000E-02 9.765625E-01 -8.619499E-01
5.156250E-02 9.734375E-01 -8.667014E-01
5.703125E-02 9.742188E-01 -8.642018E-01
5.781250E-02 9.796875E-01 -8.649564E-01
5.234375E-02 9.789062E-01 -8.675046E-01
0.000000E+00 9.531250E-01 -8.716002E-01
7.812500E-03 9.531250E-01 -8.714238E-01
1.562500E-02 9.531250E-01 -8.706032E-01
1.562500E-02 9.609375E-01 -8.735435E-01
0.000000E+00 9.609375E-01 -8.746084E-01
4.687500E-03 9.578125E-01 -8.733923E-01
1.015625E-02 9.585938E-01 -8.732905E-01
1.093750E-02 9.640625E-01 -8.751373E-01
5.468750E-03 9.632812E-01 -8.752850E-01
2.343750E-02 9.531250E-01 -8.693244E-01
3.125000E-02 9.531250E-01 -8.674560E-01
3.125000E-02 9.609375E-01 -8.703856E-01
2.031250E-02 9.578125E-01 -8.717213E-01
2.578125E-02 9.585938E-01 -8.708560E-01
2.656250E-02 9.640625E-01 -8.725948E-01
2.109375E-02 9.632812E-01 -8.735078E-01
0.000000E+00 9.375000E-01 -8.641885E-01
7.812500E-03 9.375000E-01 -8.640315E-01
1.562500E-02 9.375000E-01 -8.632179E-01
1.562500E-02 9.453125E-01 -8.672047E-01
0.000000E+00 9.453125E-01 -8.682664E-01
4.687500E-03 9.421875E-01 -8.666145E-01
1.015625E-02 9.429688E-01 -8.666177E-01
1.093750E-02 9.484375E-01 -8.692267E-01
5.468750E-03 9.476562E-01 -8.692695E-01
2.343750E-02 9.375000E-01 -8.619499E-01
3.125000E-02 9.375000E-01 -8.600973E-01
3.125000E-02 9.453125E-01 -8.640697E-01
2.031250E-02 9.421875E-01 -8.649564E-01
2.578125E-02 9.429688E-01 -8.642018E-01
2.656250E-02 9.484375E-01 -8.667014E-01
2.109375E-02 9.476562E-01 -8.675046E-01
3.906250E-02 9.531250E-01 -8.651308E-01
4.687500E-02 9.531250E-01 -8.622189E-01
4.687500E-02 9.609375E-01 -8.651308E-01
3.593750E-02 9.578125E-01 -8.679502E-01
4.140625E-02 9.585938E-01 -8.663235E-01
4.218750E-02 9.640625E-01 -8.679502E-01
3.671875E-02 9.632812E-01 -8.696263E-01
5.468750E-02 9.531250E-01 -8.588530E-01
6.250000E-02 9.531250E-01 -8.549048E-01
6.250000E-02 9.609375E-01 -8.577919E-01
5.156250E-02 9.578125E-01 -8.620882E-01
5.703125E-02 9.585938E-01 -8.597040E-01
5.781250E-02 9.640625E-01 -8.612146E-01
5.234375E-02 9.632812E-01 -8.636498E-01
3.906250E-02 9.375000E-01 -8.577919E-01
4.687500E-02 9.375000E-01 -8.549048E-01
4.687500E-02 9.453125E-01 -8.588530E-01
3.593750E-02 9.421875E-01 -8.612146E-01
4.140625E-02 9.429688E-01 -8.597040E-01
4.218750E-02 9.484375E-01 -8.620882E-01
3.671875E-02 9.476562E-01 -8.636498E-01
5.468750E-02 9.375000E-01 -8.515673E-01
6.250000E-02 9.375000E-01 -8.476526E-01
6.250000E-02 9.453125E-01 -8.515673E-01
5.156250E-02 9.421875E-01 -8.553981E-01
5.703125E-02 9.429688E-01 -8.531350E-01
5.781250E-02 9.484375E-01 -8.553981E-01
5.234375E-02 9.476562E-01 -8.577143E-01
7.031250E-02 9.843750E-01 -8.587767E-01
7.812500E-02 9.843750E-01 -8.537529E-01
7.812500E-02 9.921875E-01 -8.545576E-01
7.812500E-02 1.000000E+00 -8.546949E-01
7.031250E-02 1.000000E+00 -8.598327E-01
6.718750E-02 9.890625E-01 -8.612221E-01
7.265625E-02 9.898438E-01 -8.578571E-01
7.343750E-02 9.953125E-01 -8.577489E-01
6.796875E-02 9.945312E-01 -8.611599E-01
8.593750E-02 9.843750E-01 -8.482798E-01
9.375000E-02 9.843750E-01 -8.422313E-01
9.375000E-02 9.921875E-01 -8.430250E-01
9.375000E-02 1.000000E+00 -8.431423E-01
8.593750E-02 1.000000E+00 -8.493276E-01
8.281250E-02 9.890625E-01 -8.511427E-01
8.828125E-02 9.898438E-01 -8.470299E-01
8.906250E-02 9.953125E-01 -8.468170E-01
8.359375E-02 9.945312E-01 -8.509757E-01
7.031250E-02 9.687500E-01 -8.556721E-01
7.812500E-02 9.687500E-01 -8.506667E-01
7.812500E-02 9.765625E-01 -8.524989E-01
6.718750E-02 9.734375E-01 -8.587201E-01
7.265625E-02 9.742188E-01 -8.554657E-01
7.343750E-02 9.796875E-01 -8.561078E-01
6.796875E-02 9.789062E-01 -8.594114E-01
8.593750E-02 9.687500E-01 -8.452132E-01
9.375000E-02 9.687500E-01 -8.391866E-01
9.375000E-02 9.765625E-01 -8.409941E-01
8.281250E-02 9.734375E-01 -8.486700E-01
8.828125E-02 9.742188E-01 -8.446686E-01
8.906250E-02 9.796875E-01 -8.451968E-01
8.359375E-02 9.789062E-01 -8.492479E-01
1.015625E-01 9.843750E-01 -8.357393E-01
1.093750E-01 9.843750E-01 -8.286806E-01
1.093750E-01 9.921875E-01 -8.294616E-01
1.093750E-01 1.000000E+00 -8.295584E-01
1.015625E-01 1.000000E+00 -8.367764E-01
9.843750E-02 9.890625E-01 -8.390129E-01
1.039063E-01 9.898438E-01 -8.341621E-01
1.046875E-01 9.953125E-01 -8.338450E-01
9.921875E-02 9.945312E-01 -8.387413E-01
1.171875E-01 9.843750E-01 -8.211855E-01
1.250000E-01 9.843750E-01 -8.131335E-01
1.250000E-01 9.921875E-01 -8.138998E-01
1.250000E-01 1.000000E+00 -8.139761E-01
1.171875E-01 1.000000E+00 -8.222093E-01
1.140625E-01 9.890625E-01 -8.248618E-01
1.195313E-01 9.898438E-01 -8.192847E-01
1.203125E-01 9.953125E-01 -8.188641E-01
1.148437E-01 9.945312E-01 -8.244864E-01
1.015625E-01 9.687500E-01 -8.327180E-01
1.093750E-01 9.687500E-01 -8.256850E-01
1.093750E-01 9.765625E-01 -8.274633E-01
9.843750E-02 9.734375E-01 -8.365754E-01
1.039063E-01 9.742188E-01 -8.318367E-01
1.046875E-01 9.796875E-01 -8.322496E-01
9.921875E-02 9.789062E-01 -8.370385E-01
1.171875E-01 9.687500E-01 -8.182168E-01
1.250000E-01 9.687500E-01 -8.101941E-01
1.250000E-01 9.765625E-01 -8.119390E-01
1.140625E-01 9.734375E-01 -8.224654E-01
1.195313E-01 9.742188E-01 -8.170008E-01
1.203125E-01 9.796875E-01 -8.172974E-01
1.148437E-01 9.789062E-01 -8.228125E-01
7.031250E-02 9.531250E-01 -8.505062E-01
7.812500E-02 9.531250E-01 -8.455310E-01
7.812500E-02 9.609375E-01 -8.483864E-01
6.718750E-02 9.578125E-01 -8.541493E-01
7.265625E-02 9.585938E-01 -8.510133E-01
7.343750E-02 9.640625E-01 -8.524043E-01
6.796875E-02 9.632812E-01 -8.555926E-01
8.593750E-02 9.531250E-01 -8.401104E-01
9.375000E-02 9.531250E-01 -8.341203E-01
9.375000E-02 9.609375E-01 -8.369371E-01
8.281250E-02 9.578125E-01 -8.441527E-01
8.828125E-02 9.585938E-01 -8.402725E-01
8.906250E-02 9.640625E-01 -8.415404E-01
8.359375E-02 9.632812E-01 -8.454742E-01
7.031250E-02 9.375000E-01 -8.432913E-01
7.812500E-02 9.375000E-01 -8.383584E-01
7.812500E-02 9.453125E-01 -8.422301E-01
6.718750E-02 9.421875E-01 -8.475208E-01
7.265625E-02 9.429688E-01 -8.445108E-01
7.343750E-02 9.484375E-01 -8.466472E-01
6.796875E-02 9.476562E-01 -8.497126E-01
8.593750E-02 9.375000E-01 -8.329837E-01
9.375000E-02 9.375000E-01 -8.270446E-01
9.375000E-02 9.453125E-01 -8.308639E-01
8.281250E-02 9.421875E-01 -8.376017E-01
8.828125E-02 9.429688E-01 -8.338521E-01
8.906250E-02 9.484375E-01 -8.358567E-01
8.359375E-02 9.476562E-01 -8.396638E-01
1.015625E-01 9.531250E-01 -8.276907E-01
1.093750E-01 9.531250E-01 -8.207002E-01
1.093750E-01 9.609375E-01 -8.234716E-01
9.843750E-02 9.578125E-01 -8.321224E-01
1.039063E-01 9.585938E-01 -8.275074E-01
1.046875E-01 9.640625E-01 -8.286492E-01
9.921875E-02 9.632812E-01 -8.333191E-01
1.171875E-01 9.531250E-01 -8.132770E-01
1.250000E-01 9.531250E-01 -8.053029E-01
1.250000E-01 9.609375E-01 -8.080222E-01
1.140625E-01 9.578125E-01 -8.180875E-01
1.195313E-01 9.585938E-01 -8.127487E-01
1.203125E-01 9.640625E-01 -8.137618E-01
1.148437E-01 9.632812E-01 -8.191564E-01
1.015625E-01 9.375000E-01 -8.206693E-01
1.093750E-01 9.375000E-01 -8.137383E-01
1.093750E-01 9.453125E-01 -8.174961E-01
9.843750E-02 9.421875E-01 -8.256649E-01
1.039063E-01 9.429688E-01 -8.211845E-01
1.046875E-01 9.484375E-01 -8.230526E-01
9.921875E-02 9.476562E-01 -8.275922E-01
1.171875E-01 9.375000E-01 -8.063779E-01
1.250000E-01 9.375000E-01 -7.984716E-01
1.250000E-01 9.453125E-01 -8.021588E-01
1.140625E-01 9.421875E-01 -8.117389E-01
1.195313E-01 9.429688E-01 -8.065387E-01
1.203125E-01 9.484375E-01 -8.082657E-01
[...]
CELL_DATA 57344
SCALARS sol float 1
LOOKUP_TABLE default
-8.803494E-01
-8.803902E-01
-8.807032E-01
-8.798737E-01
-8.807484E-01
-8.799093E-01
-8.809562E-01
-8.795199E-01
-8.794353E-01
-8.807484E-01
-8.799093E-01
-8.794302E-01
-8.811827E-01
-8.787985E-01
-8.787681E-01
-8.809562E-01
-8.803902E-01
-8.794302E-01
-8.787235E-01
-8.811827E-01
-8.784850E-01
-8.780861E-01
-8.783046E-01
-8.807032E-01
-8.803494E-01
-8.787235E-01
-8.794353E-01
-8.782133E-01
-8.776678E-01
-8.773794E-01
-8.773299E-01
-8.798737E-01
-8.783046E-01
-8.782133E-01
-8.787681E-01
-8.772813E-01
-8.769761E-01
-8.764449E-01
-8.768169E-01
-8.795199E-01
-8.773299E-01
-8.772813E-01
-8.784850E-01
-8.765098E-01
-8.760386E-01
-8.757382E-01
-8.757958E-01
-8.757590E-01
-8.787985E-01
-8.769761E-01
-8.768169E-01
-8.765098E-01
-8.776678E-01
-8.755887E-01
-8.749807E-01
-8.745237E-01
-8.746707E-01
-8.747911E-01
-8.780861E-01
-8.760386E-01
-8.757590E-01
-8.755887E-01
-8.773794E-01
-8.744054E-01
-8.744373E-01
-8.741031E-01
-8.741054E-01
-8.733536E-01
-8.736507E-01
-8.749807E-01
-8.757958E-01
-8.747911E-01
-8.744054E-01
-8.764449E-01
-8.734354E-01
-8.730139E-01
-8.726370E-01
-8.728311E-01
-8.722957E-01
-8.724231E-01
-8.741031E-01
-8.744373E-01
-8.746707E-01
-8.736507E-01
-8.734354E-01
-8.757382E-01
-8.720288E-01
-8.721400E-01
-8.720912E-01
-8.719303E-01
-8.709048E-01
-8.714002E-01
-8.726370E-01
-8.730139E-01
-8.741054E-01
-8.724231E-01
-8.720288E-01
-8.745237E-01
-8.710298E-01
-8.707634E-01
-8.706846E-01
-8.705366E-01
-8.698468E-01
-8.700463E-01
-8.697281E-01
-8.719303E-01
-8.720912E-01
-8.721400E-01
-8.728311E-01
-8.714002E-01
-8.710298E-01
-8.733536E-01
-8.694010E-01
-8.693743E-01
-8.692614E-01
-8.691300E-01
-8.681421E-01
-8.684663E-01
-8.687279E-01
-8.705366E-01
-8.706846E-01
-8.707634E-01
-8.722957E-01
-8.697281E-01
-8.694010E-01
-8.680736E-01
-8.679497E-01
-8.685547E-01
-8.679154E-01
-8.677958E-01
-8.676199E-01
-8.665171E-01
-8.669760E-01
-8.691300E-01
-8.700463E-01
-8.692614E-01
-8.693743E-01
-8.709048E-01
-8.687279E-01
-8.680736E-01
-8.665980E-01
-8.661978E-01
-8.666434E-01
-8.662345E-01
-8.658418E-01
-8.658916E-01
-8.651105E-01
-8.655239E-01
-8.677958E-01
-8.685547E-01
-8.684663E-01
-8.679154E-01
-8.679497E-01
-8.698468E-01
-8.669760E-01
-8.665980E-01
-8.647239E-01
-8.651124E-01
-8.651701E-01
-8.656692E-01
-8.652646E-01
-8.647838E-01
-8.632665E-01
-8.636935E-01
-8.658418E-01
-8.666434E-01
-8.676199E-01
-8.662345E-01
-8.661978E-01
-8.681421E-01
-8.655239E-01
-8.647239E-01
-8.632718E-01
-8.629555E-01
-8.630567E-01
-8.638404E-01
-8.635127E-01
-8.629373E-01
-8.618599E-01
-8.622009E-01
-8.619160E-01
-8.647838E-01
-8.652646E-01
-8.656692E-01
-8.658916E-01
-8.651124E-01
-8.651701E-01
-8.665171E-01
-8.636935E-01
-8.632718E-01
-8.611788E-01
-8.622488E-01
-8.619276E-01
-8.616329E-01
-8.616375E-01
-8.611854E-01
-8.596691E-01
-8.601696E-01
-8.603449E-01
-8.629373E-01
-8.635127E-01
-8.638404E-01
-8.651105E-01
-8.629555E-01
-8.630567E-01
-8.619160E-01
-8.611788E-01
-8.597012E-01
-8.603730E-01
-8.598347E-01
-8.597081E-01
-8.605796E-01
-8.600892E-01
-8.593980E-01
-8.590443E-01
-8.575931E-01
-8.579904E-01
-8.611854E-01
-8.622009E-01
-8.616375E-01
-8.622488E-01
-8.632665E-01
-8.619276E-01
-8.616329E-01
-8.603449E-01
-8.597012E-01
-8.573910E-01
-8.582800E-01
-8.579328E-01
-8.576366E-01
-8.581850E-01
-8.579592E-01
-8.569607E-01
-8.568662E-01
-8.558412E-01
-8.565142E-01
-8.593980E-01
-8.605796E-01
-8.601696E-01
-8.600892E-01
-8.603730E-01
-8.618599E-01
-8.598347E-01
-8.597081E-01
-8.579904E-01
-8.573910E-01
-8.555210E-01
-8.567405E-01
-8.572261E-01
-8.559054E-01
-8.557359E-01
-8.571128E-01
-8.563535E-01
-8.555541E-01
-8.535486E-01
-8.540852E-01
-8.569607E-01
-8.581850E-01
-8.590443E-01
-8.579592E-01
-8.582800E-01
-8.596691E-01
-8.579328E-01
-8.576366E-01
-8.565142E-01
-8.555210E-01
-8.535047E-01
-8.541041E-01
-8.546333E-01
-8.536819E-01
-8.533070E-01
-8.548363E-01
-8.542606E-01
-8.532592E-01
-8.517967E-01
-8.522784E-01
-8.521613E-01
-8.555541E-01
-8.563535E-01
-8.571128E-01
-8.568662E-01
-8.567405E-01
-8.572261E-01
-8.575931E-01
-8.559054E-01
-8.557359E-01
-8.540852E-01
-8.535047E-01
-8.509582E-01
-8.530461E-01
-8.530509E-01
-8.531165E-01
-8.520191E-01
-8.518075E-01
-8.519380E-01
-8.511662E-01
-8.491251E-01
-8.498006E-01
-8.496596E-01
-8.532592E-01
-8.542606E-01
-8.548363E-01
-8.558412E-01
-8.541041E-01
-8.546333E-01
-8.536819E-01
-8.533070E-01
-8.521613E-01
-8.509582E-01
-8.490373E-01
-8.507236E-01
-8.506219E-01
-8.507471E-01
-8.491898E-01
-8.490229E-01
-8.505314E-01
-8.501909E-01
-8.489297E-01
-8.483991E-01
-8.466031E-01
-8.473480E-01
-8.511662E-01
-8.522784E-01
-8.519380E-01
-8.530461E-01
-8.535486E-01
-8.530509E-01
-8.531165E-01
-8.520191E-01
-8.518075E-01
-8.496596E-01
-8.490373E-01
-8.462782E-01
-8.482946E-01
-8.482750E-01
-8.484831E-01
-8.476932E-01
-8.470649E-01
-8.476591E-01
-8.476169E-01
-8.460151E-01
-8.457764E-01
-8.445101E-01
-8.452451E-01
-8.489297E-01
-8.505314E-01
-8.498006E-01
-8.501909E-01
-8.507236E-01
-8.517967E-01
-8.506219E-01
-8.507471E-01
-8.491898E-01
-8.490229E-01
-8.473480E-01
-8.462782E-01
-8.443368E-01
-8.463046E-01
-8.472170E-01
-8.460553E-01
-8.461385E-01
-8.449341E-01
-8.446083E-01
-8.464916E-01
-8.453794E-01
-8.442632E-01
-8.417744E-01
-8.422298E-01
-8.460151E-01
-8.476591E-01
-8.483991E-01
-8.476169E-01
-8.482946E-01
-8.491251E-01
-8.482750E-01
-8.484831E-01
-8.476932E-01
-8.470649E-01
-8.452451E-01
-8.443368E-01
-8.413670E-01
-8.431950E-01
-8.441511E-01
-8.433912E-01
-8.433794E-01
-8.425684E-01
-8.418761E-01
-8.437728E-01
-8.429504E-01
-8.415255E-01
-8.396814E-01
-8.403026E-01
-8.402933E-01
-8.442632E-01
-8.453794E-01
-8.464916E-01
-8.457764E-01
-8.463046E-01
-8.472170E-01
-8.466031E-01
-8.460553E-01
-8.461385E-01
-8.449341E-01
-8.446083E-01
-8.422298E-01
-8.413670E-01
-8.389727E-01
-8.417884E-01
-8.421191E-01
-8.425448E-01
-8.416407E-01
-8.418617E-01
-8.398814E-01
-8.395151E-01
-8.401860E-01
-8.390965E-01
-8.365354E-01
-8.373845E-01
-8.372107E-01
-8.415255E-01
-8.429504E-01
-8.437728E-01
-8.445101E-01
-8.431950E-01
-8.441511E-01
-8.433912E-01
-8.433794E-01
-8.425684E-01
-8.418761E-01
-8.402933E-01
-8.389727E-01
-8.364348E-01
-8.390247E-01
-8.393599E-01
-8.397365E-01
-8.383435E-01
-8.386094E-01
-8.371336E-01
-8.364324E-01
-8.384341E-01
-8.382445E-01
-8.364163E-01
-8.357101E-01
-8.335735E-01
-8.348320E-01
-8.390965E-01
-8.403026E-01
-8.401860E-01
-8.417884E-01
-8.417744E-01
-8.421191E-01
-8.425448E-01
-8.416407E-01
-8.418617E-01
-8.398814E-01
-8.395151E-01
-8.372107E-01
-8.364348E-01
-8.332408E-01
-8.362656E-01
-8.365735E-01
-8.372856E-01
-8.368300E-01
-8.365683E-01
-8.349493E-01
-8.344782E-01
-8.350912E-01
-8.352326E-01
-8.330314E-01
-8.326491E-01
-8.311446E-01
-8.316842E-01
-8.364163E-01
-8.384341E-01
-8.373845E-01
-8.382445E-01
-8.390247E-01
-8.396814E-01
-8.393599E-01
-8.397365E-01
-8.383435E-01
-8.386094E-01
-8.371336E-01
-8.364324E-01
-8.348320E-01
-8.332408E-01
-8.308691E-01
-8.351669E-01
-8.338299E-01
-8.341669E-01
-8.345027E-01
-8.337474E-01
-8.336772E-01
-8.314724E-01
-8.310474E-01
-8.338311E-01
-8.323686E-01
-8.309385E-01
-8.279723E-01
-8.288594E-01
-8.330314E-01
-8.350912E-01
-8.357101E-01
-8.352326E-01
-8.362656E-01
-8.365354E-01
-8.365735E-01
-8.372856E-01
-8.368300E-01
-8.365683E-01
-8.349493E-01
-8.344782E-01
-8.316842E-01
-8.308691E-01
-8.274704E-01
-8.316352E-01
-8.302546E-01
-8.310687E-01
-8.314201E-01
-8.309457E-01
-8.307657E-01
-8.295250E-01
-8.285763E-01
-8.306767E-01
-8.296095E-01
-8.277644E-01
-8.255433E-01
-8.263025E-01
-8.262463E-01
-8.309385E-01
-8.323686E-01
-8.338311E-01
-8.326491E-01
-8.338299E-01
-8.351669E-01
-8.335735E-01
-8.341669E-01
-8.345027E-01
-8.337474E-01
-8.336772E-01
-8.314724E-01
-8.310474E-01
-8.288594E-01
-8.274704E-01
-8.250844E-01
-8.299434E-01
-8.291585E-01
-8.285027E-01
-8.292348E-01
-8.298877E-01
-8.280798E-01
-8.279703E-01
-8.261263E-01
-8.256095E-01
-8.264099E-01
-8.250053E-01
-8.219305E-01
-8.229510E-01
-8.225983E-01
-8.277644E-01
-8.296095E-01
-8.306767E-01
-8.311446E-01
-8.302546E-01
-8.316352E-01
-8.310687E-01
-8.314201E-01
-8.309457E-01
-8.307657E-01
-8.295250E-01
-8.285763E-01
-8.262463E-01
-8.250844E-01
-8.214834E-01
-8.267030E-01
-8.260759E-01
-8.253046E-01
-8.254776E-01
-8.261756E-01
-8.249026E-01
-8.245716E-01
-8.233160E-01
-8.222445E-01
-8.243170E-01
-8.242786E-01
-8.218879E-01
-8.210078E-01
-8.185358E-01
-8.202216E-01
-8.250053E-01
-8.263025E-01
-8.264099E-01
-8.285027E-01
-8.279723E-01
-8.291585E-01
-8.299434E-01
-8.292348E-01
-8.298877E-01
-8.280798E-01
-8.279703E-01
-8.261263E-01
-8.256095E-01
-8.225983E-01
-8.214834E-01
-8.185883E-01
-8.240710E-01
-8.228567E-01
-8.222219E-01
-8.239509E-01
-8.240562E-01
-8.226419E-01
-8.226093E-01
-8.199978E-01
-8.194433E-01
-8.205115E-01
-8.208362E-01
-8.180408E-01
-8.175159E-01
-8.157767E-01
-8.165149E-01
-8.218879E-01
-8.243170E-01
-8.229510E-01
-8.242786E-01
-8.253046E-01
-8.255433E-01
-8.260759E-01
-8.267030E-01
-8.254776E-01
-8.261756E-01
-8.249026E-01
-8.245716E-01
-8.233160E-01
-8.222445E-01
-8.202216E-01
-8.185883E-01
-8.155528E-01
-8.208565E-01
-8.211048E-01
-8.202690E-01
-8.193465E-01
-8.205521E-01
-8.207377E-01
-8.187119E-01
-8.187258E-01
-8.167492E-01
-8.157366E-01
-8.191619E-01
-8.173527E-01
-8.156119E-01
-8.121755E-01
-8.137029E-01
-8.180408E-01
-8.205115E-01
-8.210078E-01
-8.208362E-01
-8.222219E-01
-8.219305E-01
-8.228567E-01
-8.240710E-01
-8.239509E-01
-8.240562E-01
-8.226419E-01
-8.226093E-01
-8.199978E-01
-8.194433E-01
-8.165149E-01
-8.155528E-01
-8.117424E-01
-8.174578E-01
-8.171158E-01
-8.167440E-01
-8.153140E-01
-8.173211E-01
-8.176540E-01
-8.167583E-01
-8.161838E-01
-8.140673E-01
-8.133491E-01
-8.155793E-01
-8.142700E-01
-8.120092E-01
-8.094164E-01
-8.103117E-01
-8.099403E-01
-8.156119E-01
-8.173527E-01
-8.191619E-01
-8.175159E-01
-8.193465E-01
-8.211048E-01
-8.185358E-01
-8.202690E-01
-8.208565E-01
-8.205521E-01
-8.207377E-01
-8.187119E-01
-8.187258E-01
-8.167492E-01
-8.157366E-01
-8.137029E-01
-8.117424E-01
-8.089421E-01
-8.159145E-01
-8.148311E-01
-8.153425E-01
-8.142004E-01
-8.132211E-01
-8.142834E-01
-8.144310E-01
-8.130516E-01
-8.127952E-01
-8.099740E-01
-8.093036E-01
-8.106430E-01
-8.089266E-01
-8.053454E-01
-8.065349E-01
-8.066282E-01
-8.120092E-01
-8.142700E-01
-8.155793E-01
-8.157767E-01
-8.153140E-01
-8.171158E-01
-8.167440E-01
-8.174578E-01
-8.173211E-01
-8.176540E-01
-8.167583E-01
-8.161838E-01
-8.140673E-01
-8.133491E-01
-8.099403E-01
-8.089421E-01
-8.049365E-01
-8.117516E-01
-8.106230E-01
-8.116779E-01
-8.108017E-01
-8.095962E-01
-8.106842E-01
-8.107243E-01
-8.098166E-01
-8.092673E-01
-8.075980E-01
-8.063452E-01
-8.082140E-01
-8.083270E-01
-8.053796E-01
-8.043276E-01
-8.015262E-01
-8.035314E-01
-8.089266E-01
-8.103117E-01
-8.106430E-01
-8.132211E-01
-8.121755E-01
-8.142004E-01
-8.153425E-01
-8.148311E-01
-8.159145E-01
-8.142834E-01
-8.144310E-01
-8.130516E-01
-8.127952E-01
-8.099740E-01
-8.093036E-01
-8.066282E-01
-8.049365E-01
-8.021295E-01
-8.095589E-01
-8.090867E-01
-8.088711E-01
-8.071575E-01
-8.061975E-01
-8.083528E-01
-8.087587E-01
-8.063360E-01
-8.060433E-01
-8.035924E-01
-8.028947E-01
-8.039550E-01
-8.044624E-01
-8.010796E-01
-8.004133E-01
-7.984435E-01
-7.992847E-01
-8.053796E-01
-8.082140E-01
-8.065349E-01
-8.083270E-01
-8.095962E-01
-8.094164E-01
-8.108017E-01
-8.116779E-01
-8.106230E-01
-8.117516E-01
-8.106842E-01
-8.107243E-01
-8.098166E-01
-8.092673E-01
-8.075980E-01
-8.063452E-01
-8.035314E-01
-8.021295E-01
-7.979316E-01
-8.058210E-01
-8.053801E-01
-8.052328E-01
-8.050646E-01
-8.043950E-01
-8.028891E-01
-8.039791E-01
-8.044318E-01
-8.026714E-01
-8.020377E-01
-8.003611E-01
-7.989309E-01
-8.025192E-01
-8.003676E-01
-7.983204E-01
-7.944221E-01
-7.964922E-01
-8.010796E-01
-8.039550E-01
-8.043276E-01
-8.044624E-01
-8.061975E-01
-8.053454E-01
-8.071575E-01
-8.088711E-01
-8.090867E-01
-8.095589E-01
-8.083528E-01
-8.087587E-01
-8.063360E-01
-8.060433E-01
-8.035924E-01
-8.028947E-01
-7.992847E-01
-7.979316E-01
-7.945640E-01
-8.025725E-01
-8.017276E-01
-8.015262E-01
-8.006279E-01
-8.004518E-01
-7.984093E-01
-8.020239E-01
-8.018251E-01
-7.999271E-01
-7.996544E-01
-7.964461E-01
-7.957139E-01
-7.985171E-01
-7.969689E-01
-7.942978E-01
-7.913395E-01
-7.923688E-01
-7.921972E-01
-7.983204E-01
-8.003676E-01
-8.025192E-01
-8.004133E-01
-8.028891E-01
-8.050646E-01
-8.015262E-01
-8.043950E-01
-8.052328E-01
-8.053801E-01
-8.058210E-01
-8.039791E-01
-8.044318E-01
-8.026714E-01
-8.020377E-01
-8.003611E-01
-7.989309E-01
-7.964922E-01
-7.945640E-01
-7.910598E-01
-7.989295E-01
-7.999757E-01
-7.985252E-01
-7.984645E-01
-7.987774E-01
-7.972809E-01
-7.959803E-01
-7.980182E-01
-7.980229E-01
-7.953984E-01
-7.951740E-01
-7.927249E-01
-7.914189E-01
-7.929231E-01
-7.908991E-01
-7.868202E-01
-7.881759E-01
-7.889775E-01
-7.942978E-01
-7.969689E-01
-7.985171E-01
-7.984435E-01
-7.984093E-01
-8.006279E-01
-8.004518E-01
-8.015262E-01
-8.017276E-01
-8.025725E-01
-8.020239E-01
-8.018251E-01
-7.999271E-01
-7.996544E-01
-7.964461E-01
-7.957139E-01
-7.921972E-01
-7.910598E-01
-7.866699E-01
-7.949239E-01
-7.953719E-01
-7.945129E-01
-7.938155E-01
-7.946973E-01
-7.935742E-01
-7.919375E-01
-7.943662E-01
-7.943405E-01
-7.930289E-01
-7.921595E-01
-7.895742E-01
-7.886237E-01
-7.901640E-01
-7.904281E-01
-7.869309E-01
-7.857097E-01
-7.825856E-01
-7.846374E-01
-7.908991E-01
-7.923688E-01
-7.929231E-01
-7.959803E-01
-7.944221E-01
-7.972809E-01
-7.987774E-01
-7.984645E-01
-7.999757E-01
-7.985252E-01
-7.989295E-01
-7.980182E-01
-7.980229E-01
-7.953984E-01
-7.951740E-01
-7.927249E-01
-7.914189E-01
-7.889775E-01
-7.866699E-01
-7.834675E-01
-7.929596E-01
-7.921163E-01
-7.931114E-01
-7.922735E-01
-7.917226E-01
-7.895139E-01
-7.882308E-01
-7.907316E-01
-7.907016E-01
-7.887339E-01
-7.883022E-01
-7.849015E-01
-7.840007E-01
-7.854618E-01
-7.861505E-01
-7.821884E-01
-7.813823E-01
-7.791869E-01
-7.808686E-01
-7.869309E-01
-7.901640E-01
-7.881759E-01
-7.904281E-01
-7.919375E-01
-7.913395E-01
-7.935742E-01
-7.946973E-01
-7.938155E-01
-7.953719E-01
-7.945129E-01
-7.949239E-01
-7.943662E-01
-7.943405E-01
-7.930289E-01
-7.921595E-01
-7.895742E-01
-7.886237E-01
-7.846374E-01
-7.834675E-01
-7.788936E-01
-7.881998E-01
-7.873094E-01
-7.889630E-01
-7.882678E-01
-7.876692E-01
-7.870849E-01
-7.865832E-01
-7.844976E-01
-7.866599E-01
-7.864066E-01
-7.850912E-01
-7.841948E-01
-7.821234E-01
-7.805856E-01
-7.839432E-01
-7.814544E-01
-7.791057E-01
-7.747549E-01
-7.773193E-01
-7.821884E-01
-7.854618E-01
-7.857097E-01
-7.861505E-01
-7.882308E-01
-7.868202E-01
-7.895139E-01
-7.917226E-01
-7.922735E-01
-7.931114E-01
-7.921163E-01
-7.929596E-01
-7.907316E-01
-7.907016E-01
-7.887339E-01
-7.883022E-01
-7.849015E-01
-7.840007E-01
-7.808686E-01
-7.788936E-01
-7.756931E-01
-7.855346E-01
-7.853574E-01
-7.855575E-01
-7.842026E-01
-7.836636E-01
-7.822112E-01
-7.822312E-01
-7.795811E-01
-7.838598E-01
-7.840332E-01
-7.810331E-01
-7.805687E-01
-7.775494E-01
-7.766825E-01
-7.795313E-01
-7.777478E-01
-7.746729E-01
-7.713562E-01
-7.725171E-01
-7.725137E-01
-7.791057E-01
-7.814544E-01
-7.839432E-01
-7.813823E-01
-7.844976E-01
-7.870849E-01
-7.825856E-01
-7.865832E-01
-7.876692E-01
-7.882678E-01
-7.889630E-01
-7.873094E-01
-7.881998E-01
-7.866599E-01
-7.864066E-01
-7.850912E-01
-7.841948E-01
-7.821234E-01
-7.805856E-01
-7.773193E-01
-7.756931E-01
-7.709386E-01
-7.813280E-01
-7.810624E-01
-7.815034E-01
-7.821097E-01
-7.808433E-01
-7.801743E-01
-7.802880E-01
-7.784406E-01
-7.768220E-01
-7.789066E-01
-7.791289E-01
-7.769118E-01
-7.759948E-01
-7.739247E-01
-7.721599E-01
-7.732930E-01
-7.709663E-01
-7.663995E-01
-7.679180E-01
-7.693337E-01
-7.746729E-01
-7.777478E-01
-7.795313E-01
-7.791869E-01
-7.795811E-01
-7.822112E-01
-7.822312E-01
-7.836636E-01
-7.842026E-01
-7.855575E-01
-7.853574E-01
-7.855346E-01
-7.838598E-01
-7.840332E-01
-7.810331E-01
-7.805687E-01
-7.775494E-01
-7.766825E-01
-7.725137E-01
-7.709386E-01
-7.671311E-01
-7.775000E-01
-7.770022E-01
-7.772085E-01
-7.770761E-01
-7.764275E-01
-7.750957E-01
-7.758023E-01
-7.744350E-01
-7.723709E-01
-7.765493E-01
-7.760655E-01
-7.737149E-01
-7.732180E-01
-7.694530E-01
-7.685554E-01
-7.702104E-01
-7.706250E-01
-7.665865E-01
-7.651990E-01
-7.617597E-01
-7.644918E-01
-7.709663E-01
-7.725171E-01
-7.732930E-01
-7.768220E-01
-7.747549E-01
-7.784406E-01
-7.802880E-01
-7.801743E-01
-7.821097E-01
-7.808433E-01
-7.815034E-01
-7.810624E-01
-7.813280E-01
-7.789066E-01
-7.791289E-01
-7.769118E-01
-7.759948E-01
-7.739247E-01
-7.721599E-01
-7.693337E-01
-7.671311E-01
-7.631916E-01
-7.734549E-01
-7.752503E-01
-7.732223E-01
-7.739715E-01
-7.747531E-01
-7.735515E-01
-7.726667E-01
-7.699682E-01
-7.683652E-01
-7.719753E-01
-7.718107E-01
-7.686273E-01
-7.681810E-01
-7.652920E-01
-7.637135E-01
-7.650764E-01
-7.659447E-01
-7.614129E-01
-7.604690E-01
-7.580531E-01
-7.608939E-01
-7.665865E-01
-7.702104E-01
-7.679180E-01
-7.706250E-01
-7.723709E-01
-7.713562E-01
-7.744350E-01
-7.758023E-01
-7.750957E-01
-7.770761E-01
-7.764275E-01
-7.772085E-01
-7.770022E-01
-7.775000E-01
-7.765493E-01
-7.760655E-01
-7.737149E-01
-7.732180E-01
-7.694530E-01
-7.685554E-01
-7.644918E-01
-7.631916E-01
-7.582648E-01
-7.688810E-01
-7.700690E-01
-7.687533E-01
-7.687430E-01
-7.702043E-01
-7.692565E-01
-7.682081E-01
-7.672091E-01
-7.668764E-01
-7.642161E-01
-7.679299E-01
-7.675694E-01
-7.658704E-01
-7.647267E-01
-7.617061E-01
-7.605401E-01
-7.634786E-01
-7.606586E-01
-7.580141E-01
-7.532212E-01
-7.560192E-01
-7.614129E-01
-7.650764E-01
-7.651990E-01
-7.659447E-01
-7.683652E-01
-7.663995E-01
-7.699682E-01
-7.726667E-01
-7.735515E-01
-7.747531E-01
-7.739715E-01
-7.752503E-01
-7.732223E-01
-7.734549E-01
-7.719753E-01
-7.718107E-01
-7.686273E-01
-7.681810E-01
-7.652920E-01
-7.637135E-01
-7.608939E-01
-7.582648E-01
-7.546906E-01
-7.665233E-01
-7.659041E-01
-7.673518E-01
-7.667988E-01
-7.666501E-01
-7.647885E-01
-7.639131E-01
-7.619101E-01
-7.621262E-01
-7.588748E-01
-7.637385E-01
-7.635431E-01
-7.610285E-01
-7.604340E-01
-7.564964E-01
-7.553824E-01
-7.586675E-01
-7.566530E-01
-7.531818E-01
-7.495146E-01
-7.508043E-01
-7.518286E-01
-7.580141E-01
-7.606586E-01
-7.634786E-01
-7.604690E-01
-7.642161E-01
-7.672091E-01
-7.617597E-01
-7.668764E-01
-7.682081E-01
-7.692565E-01
-7.702043E-01
-7.687430E-01
-7.700690E-01
-7.687533E-01
-7.688810E-01
-7.679299E-01
-7.675694E-01
-7.658704E-01
-7.647267E-01
-7.617061E-01
-7.605401E-01
-7.560192E-01
-7.546906E-01
-7.495924E-01
-7.612067E-01
-7.605384E-01
-7.627508E-01
-7.622249E-01
-7.621946E-01
-7.623595E-01
-7.612803E-01
-7.600045E-01
-7.599189E-01
-7.577250E-01
-7.557922E-01
-7.592271E-01
-7.587012E-01
-7.570076E-01
-7.557897E-01
-7.533465E-01
-7.515456E-01
-7.518000E-01
-7.491761E-01
-7.441325E-01
-7.458102E-01
-7.478622E-01
-7.531818E-01
-7.566530E-01
-7.586675E-01
-7.580531E-01
-7.588748E-01
-7.619101E-01
-7.621262E-01
-7.639131E-01
-7.647885E-01
-7.666501E-01
-7.667988E-01
-7.673518E-01
-7.659041E-01
-7.665233E-01
-7.637385E-01
-7.635431E-01
-7.610285E-01
-7.604340E-01
-7.564964E-01
-7.553824E-01
-7.518286E-01
-7.495924E-01
-7.460299E-01
-7.581018E-01
-7.581989E-01
-7.587865E-01
-7.577663E-01
-7.576207E-01
-7.569083E-01
-7.564716E-01
-7.545086E-01
-7.550382E-01
-7.534301E-01
-7.509435E-01
-7.559916E-01
-7.559496E-01
-7.524148E-01
-7.517918E-01
-7.482483E-01
-7.472254E-01
-7.484013E-01
-7.489653E-01
-7.443954E-01
-7.428448E-01
-7.390987E-01
-7.425430E-01
-7.491761E-01
-7.508043E-01
-7.518000E-01
-7.557922E-01
-7.532212E-01
-7.577250E-01
-7.599189E-01
-7.600045E-01
-7.623595E-01
-7.612803E-01
-7.621946E-01
-7.622249E-01
-7.627508E-01
-7.605384E-01
-7.612067E-01
-7.592271E-01
-7.587012E-01
-7.570076E-01
-7.557897E-01
-7.533465E-01
-7.515456E-01
-7.478622E-01
-7.460299E-01
-7.407641E-01
-7.534598E-01
-7.533570E-01
-7.543450E-01
-7.556734E-01
-7.538502E-01
-7.539621E-01
-7.545284E-01
-7.529660E-01
-7.517495E-01
-7.485676E-01
-7.466486E-01
-7.505015E-01
-7.505106E-01
-7.478718E-01
-7.466936E-01
-7.442615E-01
-7.421892E-01
-7.428478E-01
-7.438937E-01
-7.388031E-01
-7.377236E-01
-7.350930E-01
-7.390077E-01
-7.443954E-01
-7.484013E-01
-7.458102E-01
-7.489653E-01
-7.509435E-01
-7.495146E-01
-7.534301E-01
-7.550382E-01
-7.545086E-01
-7.569083E-01
-7.564716E-01
-7.576207E-01