# vtk DataFile Version 2.0
Grille
ASCII
DATASET POLYDATA
POINTS 481 float
0.000000E+00 8.750000E-01 -8.290442E-01
6.250000E-02 8.750000E-01 -8.161946E-01
1.250000E-01 8.750000E-01 -7.670437E-01
1.250000E-01 9.375000E-01 -8.161946E-01
1.250000E-01 1.000000E+00 -8.290442E-01
6.250000E-02 1.000000E+00 -8.835971E-01
0.000000E+00 1.000000E+00 -8.980378E-01
0.000000E+00 9.375000E-01 -8.835971E-01
3.750000E-02 9.125000E-01 -8.619033E-01
8.125000E-02 9.187500E-01 -8.425135E-01
8.750000E-02 9.625000E-01 -8.619033E-01
4.375000E-02 9.562500E-01 -8.849244E-01
1.875000E-01 8.750000E-01 -6.919246E-01
2.500000E-01 8.750000E-01 -5.871523E-01
2.500000E-01 9.375000E-01 -6.246819E-01
2.500000E-01 1.000000E+00 -6.333157E-01
1.875000E-01 1.000000E+00 -7.493736E-01
1.625000E-01 9.125000E-01 -7.579964E-01
2.062500E-01 9.187500E-01 -6.933569E-01
2.125000E-01 9.625000E-01 -7.024560E-01
1.687500E-01 9.562500E-01 -7.717220E-01
0.000000E+00 7.500000E-01 -6.333157E-01
6.250000E-02 7.500000E-01 -6.246819E-01
1.250000E-01 7.500000E-01 -5.871523E-01
1.250000E-01 8.125000E-01 -6.919246E-01
0.000000E+00 8.125000E-01 -7.493736E-01
3.750000E-02 7.875000E-01 -7.024560E-01
8.125000E-02 7.937500E-01 -6.933569E-01
8.750000E-02 8.375000E-01 -7.579964E-01
4.375000E-02 8.312500E-01 -7.717220E-01
1.875000E-01 7.500000E-01 -5.295580E-01
2.500000E-01 7.500000E-01 -4.495394E-01
2.500000E-01 8.125000E-01 -5.295580E-01
1.625000E-01 7.875000E-01 -6.177456E-01
2.062500E-01 7.937500E-01 -5.707161E-01
2.125000E-01 8.375000E-01 -6.177456E-01
1.687500E-01 8.312500E-01 -6.731051E-01
3.125000E-01 8.750000E-01 -4.623153E-01
3.750000E-01 8.750000E-01 -3.178723E-01
3.750000E-01 9.375000E-01 -3.380671E-01
3.750000E-01 1.000000E+00 -3.411707E-01
3.125000E-01 1.000000E+00 -5.010648E-01
2.875000E-01 9.125000E-01 -5.386915E-01
3.312500E-01 9.187500E-01 -4.386429E-01
3.375000E-01 9.625000E-01 -4.360661E-01
2.937500E-01 9.562500E-01 -5.410318E-01
4.375000E-01 8.750000E-01 -1.623227E-01
5.000000E-01 8.750000E-01 -1.991757E-04
5.000000E-01 9.375000E-01 1.540097E-05
5.000000E-01 1.000000E+00 2.914543E-03
4.375000E-01 1.000000E+00 -1.764734E-01
4.125000E-01 9.125000E-01 -2.373757E-01
4.562500E-01 9.187500E-01 -1.171495E-01
4.625000E-01 9.625000E-01 -1.032891E-01
4.187500E-01 9.562500E-01 -2.279745E-01
3.125000E-01 7.500000E-01 -3.538136E-01
3.750000E-01 7.500000E-01 -2.434881E-01
3.750000E-01 8.125000E-01 -2.865710E-01
2.875000E-01 7.875000E-01 -4.389890E-01
3.312500E-01 7.937500E-01 -3.611890E-01
3.375000E-01 8.375000E-01 -3.834486E-01
2.937500E-01 8.312500E-01 -4.720140E-01
4.375000E-01 7.500000E-01 -1.242044E-01
5.000000E-01 7.500000E-01 -3.680288E-04
5.000000E-01 8.125000E-01 4.385826E-05
4.125000E-01 7.875000E-01 -1.934004E-01
4.562500E-01 7.937500E-01 -9.667420E-02
4.625000E-01 8.375000E-01 -9.077500E-02
4.187500E-01 8.312500E-01 -1.990631E-01
0.000000E+00 6.250000E-01 -3.411707E-01
6.250000E-02 6.250000E-01 -3.380671E-01
1.250000E-01 6.250000E-01 -3.178723E-01
1.250000E-01 6.875000E-01 -4.623153E-01
0.000000E+00 6.875000E-01 -5.010648E-01
3.750000E-02 6.625000E-01 -4.360661E-01
8.125000E-02 6.687500E-01 -4.386429E-01
8.750000E-02 7.125000E-01 -5.386915E-01
4.375000E-02 7.062500E-01 -5.410318E-01
1.875000E-01 6.250000E-01 -2.865710E-01
2.500000E-01 6.250000E-01 -2.434881E-01
2.500000E-01 6.875000E-01 -3.538136E-01
1.625000E-01 6.625000E-01 -3.834486E-01
2.062500E-01 6.687500E-01 -3.611890E-01
2.125000E-01 7.125000E-01 -4.389890E-01
1.687500E-01 7.062500E-01 -4.720140E-01
0.000000E+00 5.000000E-01 2.914543E-03
6.250000E-02 5.000000E-01 1.540097E-05
1.250000E-01 5.000000E-01 -1.991757E-04
1.250000E-01 5.625000E-01 -1.623227E-01
0.000000E+00 5.625000E-01 -1.764734E-01
3.750000E-02 5.375000E-01 -1.032891E-01
8.125000E-02 5.437500E-01 -1.171495E-01
8.750000E-02 5.875000E-01 -2.373757E-01
4.375000E-02 5.812500E-01 -2.279745E-01
1.875000E-01 5.000000E-01 4.385826E-05
2.500000E-01 5.000000E-01 -3.680288E-04
2.500000E-01 5.625000E-01 -1.242044E-01
1.625000E-01 5.375000E-01 -9.077500E-02
2.062500E-01 5.437500E-01 -9.667420E-02
2.125000E-01 5.875000E-01 -1.934004E-01
1.687500E-01 5.812500E-01 -1.990631E-01
3.125000E-01 6.250000E-01 -1.914470E-01
3.750000E-01 6.250000E-01 -1.320351E-01
3.750000E-01 6.875000E-01 -1.914470E-01
2.875000E-01 6.625000E-01 -2.724545E-01
3.312500E-01 6.687500E-01 -2.287474E-01
3.375000E-01 7.125000E-01 -2.724545E-01
2.937500E-01 7.062500E-01 -3.311364E-01
4.375000E-01 6.250000E-01 -6.717702E-02
5.000000E-01 6.250000E-01 -4.808528E-04
5.000000E-01 6.875000E-01 6.563852E-05
4.125000E-01 6.625000E-01 -1.199816E-01
4.562500E-01 6.687500E-01 -6.148111E-02
4.625000E-01 7.125000E-01 -6.444119E-02
4.187500E-01 7.062500E-01 -1.398462E-01
3.125000E-01 5.000000E-01 6.563852E-05
3.750000E-01 5.000000E-01 -4.808528E-04
3.750000E-01 5.625000E-01 -6.717702E-02
2.875000E-01 5.375000E-01 -6.444119E-02
3.312500E-01 5.437500E-01 -6.148111E-02
3.375000E-01 5.875000E-01 -1.199816E-01
2.937500E-01 5.812500E-01 -1.398462E-01
4.375000E-01 5.000000E-01 7.742591E-05
5.000000E-01 5.000000E-01 -5.204713E-04
5.000000E-01 5.625000E-01 7.742591E-05
4.125000E-01 5.375000E-01 -2.829678E-02
4.562500E-01 5.437500E-01 -1.692809E-02
4.625000E-01 5.875000E-01 -2.829678E-02
4.187500E-01 5.812500E-01 -5.933898E-02
5.625000E-01 8.750000E-01 1.623820E-01
6.250000E-01 8.750000E-01 3.175043E-01
6.250000E-01 9.375000E-01 3.380955E-01
6.250000E-01 1.000000E+00 3.465560E-01
5.625000E-01 1.000000E+00 1.749845E-01
5.375000E-01 9.125000E-01 1.000785E-01
5.812500E-01 9.187500E-01 2.221788E-01
5.875000E-01 9.625000E-01 2.452127E-01
5.437500E-01 9.562500E-01 1.197899E-01
6.875000E-01 8.750000E-01 4.623655E-01
7.500000E-01 8.750000E-01 5.868706E-01
7.500000E-01 9.375000E-01 6.247037E-01
7.500000E-01 1.000000E+00 6.374375E-01
6.875000E-01 1.000000E+00 4.998025E-01
6.625000E-01 9.125000E-01 4.222965E-01
7.062500E-01 9.187500E-01 5.276824E-01
7.125000E-01 9.625000E-01 5.563831E-01
6.687500E-01 9.562500E-01 4.493173E-01
5.625000E-01 7.500000E-01 1.243139E-01
6.250000E-01 7.500000E-01 2.428081E-01
6.250000E-01 8.125000E-01 2.866520E-01
5.375000E-01 7.875000E-01 8.163173E-02
5.812500E-01 7.937500E-01 1.825584E-01
5.875000E-01 8.375000E-01 2.157182E-01
5.437500E-01 8.312500E-01 1.041933E-01
6.875000E-01 7.500000E-01 3.539065E-01
7.500000E-01 7.500000E-01 4.490189E-01
7.500000E-01 8.125000E-01 5.296200E-01
6.625000E-01 7.875000E-01 3.442361E-01
7.062500E-01 7.937500E-01 4.339982E-01
7.125000E-01 8.375000E-01 4.893703E-01
6.687500E-01 8.312500E-01 3.915873E-01
8.125000E-01 8.750000E-01 6.919581E-01
8.750000E-01 8.750000E-01 7.668912E-01
8.750000E-01 9.375000E-01 8.162064E-01
8.750000E-01 1.000000E+00 8.312749E-01
8.125000E-01 1.000000E+00 7.485302E-01
7.875000E-01 9.125000E-01 6.802238E-01
8.312500E-01 9.187500E-01 7.528512E-01
8.375000E-01 9.625000E-01 7.828492E-01
7.937500E-01 9.562500E-01 7.104403E-01
9.375000E-01 8.750000E-01 8.162064E-01
1.000000E+00 8.750000E-01 8.312749E-01
1.000000E+00 9.375000E-01 8.833009E-01
1.000000E+00 1.000000E+00 8.990787E-01
9.375000E-01 1.000000E+00 8.833009E-01
9.125000E-01 9.125000E-01 8.345932E-01
9.562500E-01 9.187500E-01 8.634052E-01
9.625000E-01 9.625000E-01 8.901336E-01
9.187500E-01 9.562500E-01 8.634052E-01
8.125000E-01 7.500000E-01 5.296200E-01
8.750000E-01 7.500000E-01 5.868706E-01
8.750000E-01 8.125000E-01 6.919581E-01
7.875000E-01 7.875000E-01 5.544337E-01
8.312500E-01 7.937500E-01 6.193656E-01
8.375000E-01 8.375000E-01 6.885202E-01
7.937500E-01 8.312500E-01 6.193656E-01
9.375000E-01 7.500000E-01 6.247037E-01
1.000000E+00 7.500000E-01 6.374375E-01
1.000000E+00 8.125000E-01 7.485302E-01
9.125000E-01 7.875000E-01 6.802238E-01
9.562500E-01 7.937500E-01 7.104403E-01
9.625000E-01 8.375000E-01 7.828492E-01
9.187500E-01 8.312500E-01 7.528512E-01
5.625000E-01 6.250000E-01 6.732008E-02
6.250000E-01 6.250000E-01 1.311466E-01
6.250000E-01 6.875000E-01 1.915683E-01
5.375000E-01 6.625000E-01 5.075731E-02
5.812500E-01 6.687500E-01 1.151452E-01
5.875000E-01 7.125000E-01 1.533827E-01
5.437500E-01 7.062500E-01 7.273426E-02
6.875000E-01 6.250000E-01 1.915683E-01
7.500000E-01 6.250000E-01 2.428081E-01
7.500000E-01 6.875000E-01 3.539065E-01
6.625000E-01 6.625000E-01 2.137689E-01
7.062500E-01 6.687500E-01 2.742416E-01
7.125000E-01 7.125000E-01 3.478554E-01
6.687500E-01 7.062500E-01 2.742416E-01
5.625000E-01 5.000000E-01 7.742591E-05
6.250000E-01 5.000000E-01 -4.808528E-04
6.250000E-01 5.625000E-01 6.732008E-02
5.375000E-01 5.375000E-01 1.215555E-02
5.812500E-01 5.437500E-01 3.020208E-02
5.875000E-01 5.875000E-01 6.769600E-02
5.437500E-01 5.812500E-01 3.020208E-02
6.875000E-01 5.000000E-01 6.563852E-05
7.500000E-01 5.000000E-01 -3.680288E-04
7.500000E-01 5.625000E-01 1.243139E-01
6.625000E-01 5.375000E-01 5.075731E-02
7.062500E-01 5.437500E-01 7.273426E-02
7.125000E-01 5.875000E-01 1.533827E-01
6.687500E-01 5.812500E-01 1.151452E-01
8.125000E-01 6.250000E-01 2.866520E-01
8.750000E-01 6.250000E-01 3.175043E-01
8.750000E-01 6.875000E-01 4.623655E-01
7.875000E-01 6.625000E-01 3.442361E-01
8.312500E-01 6.687500E-01 3.915873E-01
8.375000E-01 7.125000E-01 4.893703E-01
7.937500E-01 7.062500E-01 4.339982E-01
9.375000E-01 6.250000E-01 3.380955E-01
1.000000E+00 6.250000E-01 3.465560E-01
1.000000E+00 6.875000E-01 4.998025E-01
9.125000E-01 6.625000E-01 4.222965E-01
9.562500E-01 6.687500E-01 4.493173E-01
9.625000E-01 7.125000E-01 5.563831E-01
9.187500E-01 7.062500E-01 5.276824E-01
8.125000E-01 5.000000E-01 4.385826E-05
8.750000E-01 5.000000E-01 -1.991757E-04
8.750000E-01 5.625000E-01 1.623820E-01
7.875000E-01 5.375000E-01 8.163173E-02
8.312500E-01 5.437500E-01 1.041933E-01
8.375000E-01 5.875000E-01 2.157182E-01
7.937500E-01 5.812500E-01 1.825584E-01
9.375000E-01 5.000000E-01 1.540097E-05
1.000000E+00 5.000000E-01 2.914543E-03
1.000000E+00 5.625000E-01 1.749845E-01
9.125000E-01 5.375000E-01 1.000785E-01
9.562500E-01 5.437500E-01 1.197899E-01
9.625000E-01 5.875000E-01 2.452127E-01
9.187500E-01 5.812500E-01 2.221788E-01
0.000000E+00 3.750000E-01 3.465560E-01
6.250000E-02 3.750000E-01 3.380955E-01
[...]
CELL_DATA 896
SCALARS sol float 1
LOOKUP_TABLE default
-8.441495E-01
-8.470624E-01
-8.668006E-01
-8.139389E-01
-8.699236E-01
-8.172464E-01
-8.832657E-01
-7.912878E-01
-7.871972E-01
-8.699236E-01
-8.172464E-01
-7.877781E-01
-8.980378E-01
-7.464933E-01
-7.465203E-01
-8.832657E-01
-8.470624E-01
-7.877781E-01
-7.459243E-01
-8.980378E-01
-7.283890E-01
-7.025600E-01
-7.203021E-01
-8.668006E-01
-8.441495E-01
-7.459243E-01
-7.871972E-01
-7.172259E-01
-6.795982E-01
-6.607062E-01
-6.646558E-01
-8.139389E-01
-7.203021E-01
-7.172259E-01
-7.465203E-01
-6.652950E-01
-6.420047E-01
-6.059253E-01
-6.384928E-01
-7.912878E-01
-6.646558E-01
-6.652950E-01
-7.283890E-01
-6.250956E-01
-5.888235E-01
-5.640715E-01
-5.712850E-01
-5.838082E-01
-7.464933E-01
-6.420047E-01
-6.384928E-01
-6.250956E-01
-6.795982E-01
-5.778923E-01
-5.341389E-01
-4.960740E-01
-5.094661E-01
-5.339728E-01
-7.025600E-01
-5.888235E-01
-5.838082E-01
-5.778923E-01
-6.607062E-01
-5.221781E-01
-4.838824E-01
-5.113217E-01
-4.759637E-01
-4.313610E-01
-4.828115E-01
-5.341389E-01
-5.712850E-01
-5.339728E-01
-5.221781E-01
-6.059253E-01
-4.772209E-01
-4.108775E-01
-4.421076E-01
-4.086714E-01
-3.766764E-01
-4.266371E-01
-4.838824E-01
-5.113217E-01
-5.094661E-01
-4.828115E-01
-4.772209E-01
-5.640715E-01
-4.180307E-01
-3.690237E-01
-3.920028E-01
-4.085058E-01
-3.056650E-01
-3.882076E-01
-4.108775E-01
-4.421076E-01
-4.759637E-01
-4.266371E-01
-4.180307E-01
-4.960740E-01
-3.807278E-01
-3.002259E-01
-3.328126E-01
-3.475037E-01
-2.509804E-01
-2.683998E-01
-3.228546E-01
-3.690237E-01
-3.920028E-01
-4.085058E-01
-4.086714E-01
-3.882076E-01
-3.807278E-01
-4.313610E-01
-3.208344E-01
-2.410357E-01
-2.694272E-01
-3.002035E-01
-1.701319E-01
-1.948503E-01
-2.929657E-01
-3.002259E-01
-3.328126E-01
-3.475037E-01
-3.766764E-01
-3.228546E-01
-3.208344E-01
-2.788565E-01
-2.275734E-01
-1.737959E-01
-2.268244E-01
-2.432964E-01
-1.510773E-01
-9.449116E-02
-2.382811E-01
-2.410357E-01
-2.683998E-01
-2.694272E-01
-3.002035E-01
-3.056650E-01
-2.929657E-01
-2.788565E-01
-2.334318E-01
-1.516134E-01
-9.454675E-02
-1.632270E-01
-1.886118E-01
-7.552802E-02
-3.530098E-02
-1.921715E-01
-1.737959E-01
-2.275734E-01
-1.948503E-01
-2.268244E-01
-2.432964E-01
-2.509804E-01
-2.382811E-01
-2.334318E-01
-1.856800E-01
-1.297246E-01
-8.583387E-02
-3.986215E-02
-1.394218E-01
-1.695204E-01
4.113007E-02
-1.507171E-01
-9.454675E-02
-1.516134E-01
-1.510773E-01
-1.632270E-01
-1.886118E-01
-1.701319E-01
-1.921715E-01
-1.856800E-01
-1.493273E-01
-6.421083E-02
-3.114928E-02
3.407843E-02
-7.437937E-02
-1.100132E-01
1.003202E-01
7.534675E-02
-1.067539E-01
-3.986215E-02
-8.583387E-02
-1.297246E-01
-7.552802E-02
-1.394218E-01
-1.695204E-01
-9.449116E-02
-1.507171E-01
-1.493273E-01
-1.074735E-01
-3.252559E-02
3.613630E-02
8.876302E-02
-6.410915E-02
-8.862255E-02
1.817112E-01
1.494298E-01
-8.382203E-02
3.407843E-02
-3.114928E-02
-6.421083E-02
-3.530098E-02
-7.437937E-02
-1.100132E-01
-1.067539E-01
-1.074735E-01
-8.565951E-02
2.766775E-02
9.082089E-02
6.369462E-02
1.627494E-01
-2.225538E-02
-4.311813E-02
1.968093E-01
2.567641E-01
-4.288840E-02
8.876302E-02
7.534675E-02
3.613630E-02
-3.252559E-02
4.113007E-02
-6.410915E-02
-8.862255E-02
-8.382203E-02
-8.565951E-02
-5.166443E-02
6.952152E-02
1.619625E-01
1.250330E-01
2.361779E-01
2.564111E-02
-2.023730E-02
2.691138E-01
3.114487E-01
-3.262440E-02
1.627494E-01
9.082089E-02
1.494298E-01
6.369462E-02
2.766775E-02
1.003202E-01
-2.225538E-02
-4.311813E-02
-4.288840E-02
-5.166443E-02
-3.402852E-02
6.749488E-02
1.305897E-01
1.688059E-01
2.334025E-01
2.953680E-01
4.234556E-02
1.704490E-02
3.816634E-01
-9.973301E-03
2.361779E-01
1.619625E-01
1.968093E-01
1.250330E-01
6.952152E-02
1.817112E-01
2.564111E-02
-2.023730E-02
-3.262440E-02
-3.402852E-02
-1.546108E-02
1.175566E-01
1.854194E-01
2.288576E-01
2.752562E-01
3.631946E-01
8.160100E-02
3.969600E-02
4.363480E-01
4.076225E-01
1.124229E-02
2.953680E-01
2.334025E-01
1.688059E-01
2.691138E-01
1.305897E-01
6.749488E-02
2.567641E-01
4.234556E-02
1.704490E-02
-9.973301E-03
-1.546108E-02
-4.868064E-03
1.151034E-01
1.745074E-01
2.401040E-01
3.361983E-01
4.050484E-01
7.854891E-02
3.389339E-02
5.058904E-01
4.709605E-01
1.454977E-02
3.631946E-01
2.752562E-01
2.288576E-01
3.114487E-01
1.854194E-01
1.175566E-01
8.160100E-02
3.969600E-02
1.124229E-02
-4.868064E-03
3.827121E-03
1.537599E-01
1.971585E-01
2.944197E-01
3.953885E-01
3.445168E-01
4.745175E-01
1.064325E-01
5.525368E-02
5.147335E-01
5.689293E-01
2.574604E-02
4.050484E-01
4.076225E-01
3.361983E-01
2.401040E-01
3.816634E-01
1.745074E-01
1.151034E-01
7.854891E-02
3.389339E-02
1.454977E-02
3.827121E-03
3.827121E-03
1.482863E-01
2.395501E-01
3.170708E-01
4.508812E-01
3.942578E-01
5.309465E-01
8.904523E-02
4.387741E-02
5.727854E-01
6.107831E-01
1.454977E-02
4.745175E-01
3.953885E-01
4.709605E-01
3.445168E-01
2.944197E-01
4.363480E-01
1.971585E-01
1.537599E-01
1.064325E-01
5.525368E-02
2.574604E-02
3.827121E-03
-4.868064E-03
1.808221E-01
2.942347E-01
2.289615E-01
3.807201E-01
4.416373E-01
5.171054E-01
5.856311E-01
8.904523E-02
5.525368E-02
6.640920E-01
1.124229E-02
5.309465E-01
4.508812E-01
5.147335E-01
3.942578E-01
3.170708E-01
5.058904E-01
2.395501E-01
1.482863E-01
8.904523E-02
4.387741E-02
1.454977E-02
-4.868064E-03
-1.546108E-02
1.808221E-01
3.272294E-01
2.575329E-01
4.169898E-01
4.870845E-01
5.397565E-01
6.370177E-01
1.064325E-01
3.389339E-02
7.059457E-01
6.778414E-01
-9.973301E-03
5.856311E-01
5.171054E-01
4.416373E-01
5.727854E-01
3.807201E-01
2.942347E-01
5.689293E-01
2.289615E-01
1.808221E-01
8.904523E-02
5.525368E-02
1.124229E-02
-1.546108E-02
-3.402852E-02
1.482863E-01
2.289615E-01
3.013059E-01
3.865569E-01
4.761800E-01
5.850772E-01
6.596688E-01
7.854891E-02
3.969600E-02
7.530524E-01
7.207917E-01
-3.262440E-02
6.370177E-01
5.397565E-01
4.870845E-01
6.107831E-01
4.169898E-01
3.272294E-01
2.575329E-01
1.808221E-01
1.064325E-01
3.389339E-02
-9.973301E-03
-3.402852E-02
-5.166443E-02
1.537599E-01
2.395501E-01
3.272294E-01
3.865569E-01
5.163490E-01
6.397618E-01
5.728893E-01
7.140447E-01
8.160100E-02
1.704490E-02
7.542941E-01
7.944802E-01
-4.288840E-02
6.596688E-01
6.778414E-01
5.850772E-01
4.761800E-01
6.640920E-01
3.865569E-01
3.013059E-01
2.289615E-01
1.482863E-01
7.854891E-02
3.969600E-02
-3.262440E-02
-5.166443E-02
-8.565951E-02
1.151034E-01
1.971585E-01
2.942347E-01
4.169898E-01
5.163490E-01
6.711572E-01
6.034604E-01
7.448834E-01
4.234556E-02
-2.023730E-02
7.892557E-01
8.171313E-01
-8.382203E-02
7.140447E-01
6.397618E-01
7.207917E-01
5.728893E-01
5.163490E-01
7.059457E-01
3.865569E-01
3.272294E-01
2.395501E-01
1.537599E-01
8.160100E-02
1.704490E-02
-4.288840E-02
-8.565951E-02
-1.074735E-01
1.175566E-01
1.745074E-01
3.170708E-01
4.761800E-01
3.807201E-01
5.728893E-01
6.472334E-01
7.220837E-01
7.867372E-01
2.564111E-02
-4.311813E-02
8.454185E-01
-1.067539E-01
7.448834E-01
6.711572E-01
7.542941E-01
6.034604E-01
5.163490E-01
7.530524E-01
4.169898E-01
2.942347E-01
1.971585E-01
1.151034E-01
4.234556E-02
-2.023730E-02
-8.382203E-02
-1.074735E-01
-1.493273E-01
6.749488E-02
1.854194E-01
2.944197E-01
4.870845E-01
3.942578E-01
5.850772E-01
6.711572E-01
7.220837E-01
8.138606E-01
-2.225538E-02
-8.862255E-02
8.680696E-01
8.448651E-01
-1.507171E-01
7.867372E-01
7.220837E-01
6.472334E-01
7.892557E-01
5.728893E-01
4.761800E-01
7.944802E-01
3.807201E-01
3.170708E-01
1.745074E-01
1.175566E-01
2.564111E-02
-4.311813E-02
-1.067539E-01
-1.493273E-01
-1.856800E-01
6.952152E-02
2.401040E-01
1.305897E-01
3.445168E-01
4.416373E-01
5.397565E-01
6.397618E-01
7.448834E-01
8.138606E-01
-6.410915E-02
-1.100132E-01
8.855690E-01
8.608889E-01
-1.921715E-01
8.138606E-01
7.220837E-01
6.711572E-01
8.171313E-01
5.850772E-01
4.870845E-01
3.942578E-01
2.944197E-01
1.854194E-01
6.749488E-02
-2.225538E-02
-8.862255E-02
-1.507171E-01
-1.856800E-01
-2.334318E-01
2.766775E-02
2.288576E-01
1.250330E-01
3.361983E-01
4.508812E-01
5.171054E-01
6.596688E-01
7.867372E-01
7.140447E-01
8.448651E-01
-7.437937E-02
-1.695204E-01
8.790203E-01
8.990787E-01
-2.382811E-01
8.138606E-01
8.448651E-01
7.448834E-01
6.397618E-01
8.454185E-01
5.397565E-01
4.416373E-01
3.445168E-01
2.401040E-01
1.305897E-01
6.952152E-02
-6.410915E-02
-1.100132E-01
-1.921715E-01
-2.334318E-01
-2.788565E-01
6.369462E-02
-3.252559E-02
1.688059E-01
2.752562E-01
3.953885E-01
5.309465E-01
6.370177E-01
7.892557E-01
7.207917E-01
8.454185E-01
-1.394218E-01
-1.886118E-01
8.855690E-01
8.990787E-01
-2.929657E-01
8.448651E-01
7.867372E-01
8.608889E-01
7.140447E-01
6.596688E-01
8.680696E-01
5.171054E-01
4.508812E-01
3.361983E-01
2.288576E-01
1.250330E-01
2.766775E-02
-7.437937E-02
-1.695204E-01
-2.382811E-01
-2.788565E-01
-3.208344E-01
3.613630E-02
-6.421083E-02
1.619625E-01
2.334025E-01
4.050484E-01
5.856311E-01
4.745175E-01
6.778414E-01
7.542941E-01
8.171313E-01
8.680696E-01
-1.632270E-01
-2.432964E-01
-3.228546E-01
8.454185E-01
7.892557E-01
8.790203E-01
7.207917E-01
6.370177E-01
8.855690E-01
5.309465E-01
3.953885E-01
2.752562E-01
1.688059E-01
6.369462E-02
-3.252559E-02
-1.394218E-01
-1.886118E-01
-2.929657E-01
-3.208344E-01
-3.807278E-01
9.082089E-02
-3.114928E-02
-1.297246E-01
2.361779E-01
3.631946E-01
5.727854E-01
4.709605E-01
6.640920E-01
7.530524E-01
7.944802E-01
-2.268244E-01
-3.002035E-01
-3.882076E-01
8.680696E-01
8.171313E-01
7.542941E-01
8.855690E-01
6.778414E-01
5.856311E-01
8.990787E-01
4.745175E-01
4.050484E-01
2.334025E-01
1.619625E-01
3.613630E-02
-6.421083E-02
-1.632270E-01
-2.432964E-01
-3.228546E-01
-3.807278E-01
-4.180307E-01
8.876302E-02
-8.583387E-02
-1.516134E-01
2.953680E-01
1.627494E-01
4.076225E-01
5.147335E-01
6.107831E-01
7.059457E-01
-2.694272E-01
-3.475037E-01
-4.266371E-01
7.944802E-01
7.530524E-01
8.990787E-01
6.640920E-01
5.727854E-01
4.709605E-01
3.631946E-01
2.361779E-01
9.082089E-02
-3.114928E-02
-1.297246E-01
-2.268244E-01
-3.002035E-01
-3.882076E-01
-4.180307E-01
-4.772209E-01
3.407843E-02
-9.454675E-02
-2.275734E-01
2.691138E-01
1.494298E-01
3.816634E-01
5.058904E-01
5.689293E-01
-3.328126E-01
-4.085058E-01
-4.828115E-01
7.059457E-01
6.107831E-01
5.147335E-01
4.076225E-01
2.953680E-01
1.627494E-01
8.876302E-02
-8.583387E-02
-1.516134E-01
-2.694272E-01
-3.475037E-01
-4.266371E-01
-4.772209E-01
-5.221781E-01
7.534675E-02
-3.986215E-02
-1.737959E-01
-2.410357E-01
1.968093E-01
3.114487E-01
4.363480E-01
-3.920028E-01
-4.421076E-01
-5.339728E-01
5.689293E-01
5.058904E-01
3.816634E-01
2.691138E-01
1.494298E-01
3.407843E-02
-9.454675E-02
-2.275734E-01
-3.328126E-01
-4.085058E-01
-4.828115E-01
-5.221781E-01
-5.778923E-01
4.113007E-02
-7.552802E-02
-1.948503E-01
-3.002259E-01
1.817112E-01
2.567641E-01
-4.108775E-01
-5.113217E-01
-5.838082E-01
4.363480E-01
3.114487E-01
1.968093E-01
7.534675E-02
-3.986215E-02
-1.737959E-01
-2.410357E-01
-3.920028E-01
-4.421076E-01
-5.339728E-01
-5.778923E-01
-6.250956E-01
1.003202E-01
-3.530098E-02
-1.510773E-01
-2.683998E-01
-3.690237E-01
-4.838824E-01
-5.341389E-01
-6.384928E-01
2.567641E-01
1.817112E-01
4.113007E-02
-7.552802E-02
-1.948503E-01
-3.002259E-01
-4.108775E-01
-5.113217E-01
-5.838082E-01
-6.250956E-01
-6.652950E-01
-9.449116E-02
-1.701319E-01
-3.056650E-01
-4.086714E-01
-5.094661E-01
-5.888235E-01
-6.646558E-01
1.003202E-01
-3.530098E-02
-1.510773E-01
-2.683998E-01
-3.690237E-01
-4.838824E-01
-5.341389E-01
-6.384928E-01
-6.652950E-01
-7.172259E-01
-2.509804E-01
-3.766764E-01
-4.759637E-01
-5.712850E-01
-6.420047E-01
-7.203021E-01
-9.449116E-02
-1.701319E-01
-3.056650E-01
-4.086714E-01
-5.094661E-01
-5.888235E-01
-6.646558E-01
-7.172259E-01
-7.459243E-01
-4.313610E-01
-4.960740E-01
-6.059253E-01
-6.795982E-01
-7.465203E-01
-2.509804E-01
-3.766764E-01
-4.759637E-01
-5.712850E-01
-6.420047E-01
-7.203021E-01
-7.459243E-01
-7.877781E-01
-5.640715E-01
-6.607062E-01
-7.283890E-01
-7.871972E-01
-4.313610E-01
-4.960740E-01
-6.059253E-01
-6.795982E-01
-7.465203E-01
-7.877781E-01
-8.172464E-01
-7.025600E-01
-7.464933E-01
-8.139389E-01
-5.640715E-01
-6.607062E-01
-7.283890E-01
-7.871972E-01
-8.172464E-01
-8.470624E-01
-7.912878E-01
-8.441495E-01
-7.025600E-01
-7.464933E-01
-8.139389E-01
-8.470624E-01
-8.699236E-01
-8.668006E-01
-7.912878E-01
-8.441495E-01
-8.699236E-01
-8.832657E-01
-8.668006E-01
-8.832657E-01
-8.980378E-01
-8.980378E-01
