# vtk DataFile Version 2.0
Grille
ASCII
DATASET POLYDATA
POINTS 28929 float
0.000000E+00 9.843750E-01 -8.144085E-01
7.812500E-03 9.843750E-01 -8.142106E-01
1.562500E-02 9.843750E-01 -8.134439E-01
1.562500E-02 9.921875E-01 -8.142106E-01
1.562500E-02 1.000000E+00 -8.144085E-01
7.812500E-03 1.000000E+00 -8.151946E-01
0.000000E+00 1.000000E+00 -8.153997E-01
0.000000E+00 9.921875E-01 -8.151946E-01
4.687500E-03 9.890625E-01 -8.148831E-01
1.015625E-02 9.898438E-01 -8.145956E-01
1.093750E-02 9.953125E-01 -8.148831E-01
5.468750E-03 9.945312E-01 -8.152127E-01
2.343750E-02 9.843750E-01 -8.122491E-01
3.125000E-02 9.843750E-01 -8.105032E-01
3.125000E-02 9.921875E-01 -8.112672E-01
3.125000E-02 1.000000E+00 -8.114480E-01
2.343750E-02 1.000000E+00 -8.132350E-01
2.031250E-02 9.890625E-01 -8.133240E-01
2.578125E-02 9.898438E-01 -8.123246E-01
2.656250E-02 9.953125E-01 -8.125157E-01
2.109375E-02 9.945312E-01 -8.135575E-01
0.000000E+00 9.687500E-01 -8.114480E-01
7.812500E-03 9.687500E-01 -8.112672E-01
1.562500E-02 9.687500E-01 -8.105032E-01
1.562500E-02 9.765625E-01 -8.122491E-01
0.000000E+00 9.765625E-01 -8.132350E-01
4.687500E-03 9.734375E-01 -8.125157E-01
1.015625E-02 9.742188E-01 -8.123246E-01
1.093750E-02 9.796875E-01 -8.133240E-01
5.468750E-03 9.789062E-01 -8.135575E-01
2.343750E-02 9.687500E-01 -8.093127E-01
3.125000E-02 9.687500E-01 -8.075732E-01
3.125000E-02 9.765625E-01 -8.093127E-01
2.031250E-02 9.734375E-01 -8.109611E-01
2.578125E-02 9.742188E-01 -8.100600E-01
2.656250E-02 9.796875E-01 -8.109611E-01
2.109375E-02 9.789062E-01 -8.119056E-01
3.906250E-02 9.843750E-01 -8.083308E-01
4.687500E-02 9.843750E-01 -8.056100E-01
4.687500E-02 9.921875E-01 -8.063693E-01
4.687500E-02 1.000000E+00 -8.065326E-01
3.906250E-02 1.000000E+00 -8.093162E-01
3.593750E-02 9.890625E-01 -8.098056E-01
4.140625E-02 9.898438E-01 -8.080967E-01
4.218750E-02 9.953125E-01 -8.081908E-01
3.671875E-02 9.945312E-01 -8.099423E-01
5.468750E-02 9.843750E-01 -8.024652E-01
6.250000E-02 9.843750E-01 -7.987760E-01
6.250000E-02 9.921875E-01 -7.995288E-01
6.250000E-02 1.000000E+00 -7.996742E-01
5.468750E-02 1.000000E+00 -8.034477E-01
5.156250E-02 9.890625E-01 -8.043362E-01
5.703125E-02 9.898438E-01 -8.019220E-01
5.781250E-02 9.953125E-01 -8.019190E-01
5.234375E-02 9.945312E-01 -8.043759E-01
3.906250E-02 9.687500E-01 -8.054086E-01
4.687500E-02 9.687500E-01 -8.026977E-01
4.687500E-02 9.765625E-01 -8.044267E-01
3.593750E-02 9.734375E-01 -8.074529E-01
4.140625E-02 9.742188E-01 -8.058439E-01
4.218750E-02 9.796875E-01 -8.066446E-01
3.671875E-02 9.789062E-01 -8.082978E-01
5.468750E-02 9.687500E-01 -7.995642E-01
6.250000E-02 9.687500E-01 -7.958884E-01
6.250000E-02 9.765625E-01 -7.976027E-01
5.156250E-02 9.734375E-01 -8.019995E-01
5.703125E-02 9.742188E-01 -7.996865E-01
5.781250E-02 9.796875E-01 -8.003847E-01
5.234375E-02 9.789062E-01 -8.027427E-01
0.000000E+00 9.531250E-01 -8.065326E-01
7.812500E-03 9.531250E-01 -8.063693E-01
1.562500E-02 9.531250E-01 -8.056100E-01
1.562500E-02 9.609375E-01 -8.083308E-01
0.000000E+00 9.609375E-01 -8.093162E-01
4.687500E-03 9.578125E-01 -8.081908E-01
1.015625E-02 9.585938E-01 -8.080967E-01
1.093750E-02 9.640625E-01 -8.098056E-01
5.468750E-03 9.632812E-01 -8.099423E-01
2.343750E-02 9.531250E-01 -8.044267E-01
3.125000E-02 9.531250E-01 -8.026977E-01
3.125000E-02 9.609375E-01 -8.054086E-01
2.031250E-02 9.578125E-01 -8.066446E-01
2.578125E-02 9.585938E-01 -8.058439E-01
2.656250E-02 9.640625E-01 -8.074529E-01
2.109375E-02 9.632812E-01 -8.082978E-01
0.000000E+00 9.375000E-01 -7.996742E-01
7.812500E-03 9.375000E-01 -7.995288E-01
1.562500E-02 9.375000E-01 -7.987760E-01
1.562500E-02 9.453125E-01 -8.024652E-01
0.000000E+00 9.453125E-01 -8.034477E-01
4.687500E-03 9.421875E-01 -8.019190E-01
1.015625E-02 9.429688E-01 -8.019220E-01
1.093750E-02 9.484375E-01 -8.043362E-01
5.468750E-03 9.476562E-01 -8.043759E-01
2.343750E-02 9.375000E-01 -7.976027E-01
3.125000E-02 9.375000E-01 -7.958884E-01
3.125000E-02 9.453125E-01 -7.995642E-01
2.031250E-02 9.421875E-01 -8.003847E-01
2.578125E-02 9.429688E-01 -7.996865E-01
2.656250E-02 9.484375E-01 -8.019995E-01
2.109375E-02 9.476562E-01 -8.027427E-01
3.906250E-02 9.531250E-01 -8.005461E-01
4.687500E-02 9.531250E-01 -7.978516E-01
4.687500E-02 9.609375E-01 -8.005461E-01
3.593750E-02 9.578125E-01 -8.031550E-01
4.140625E-02 9.585938E-01 -8.016498E-01
4.218750E-02 9.640625E-01 -8.031550E-01
3.671875E-02 9.632812E-01 -8.047060E-01
5.468750E-02 9.531250E-01 -7.947370E-01
6.250000E-02 9.531250E-01 -7.910835E-01
6.250000E-02 9.609375E-01 -7.937551E-01
5.156250E-02 9.578125E-01 -7.977306E-01
5.703125E-02 9.585938E-01 -7.955244E-01
5.781250E-02 9.640625E-01 -7.969223E-01
5.234375E-02 9.632812E-01 -7.991756E-01
3.906250E-02 9.375000E-01 -7.937551E-01
4.687500E-02 9.375000E-01 -7.910835E-01
4.687500E-02 9.453125E-01 -7.947370E-01
3.593750E-02 9.421875E-01 -7.969223E-01
4.140625E-02 9.429688E-01 -7.955244E-01
4.218750E-02 9.484375E-01 -7.977306E-01
3.671875E-02 9.476562E-01 -7.991756E-01
5.468750E-02 9.375000E-01 -7.879952E-01
6.250000E-02 9.375000E-01 -7.843728E-01
6.250000E-02 9.453125E-01 -7.879952E-01
5.156250E-02 9.421875E-01 -7.915399E-01
5.703125E-02 9.429688E-01 -7.894459E-01
5.781250E-02 9.484375E-01 -7.915399E-01
5.234375E-02 9.476562E-01 -7.936833E-01
7.031250E-02 9.843750E-01 -7.946663E-01
7.812500E-02 9.843750E-01 -7.900177E-01
7.812500E-02 9.921875E-01 -7.907622E-01
7.812500E-02 1.000000E+00 -7.908893E-01
7.031250E-02 1.000000E+00 -7.956436E-01
6.718750E-02 9.890625E-01 -7.969292E-01
7.265625E-02 9.898438E-01 -7.938154E-01
7.343750E-02 9.953125E-01 -7.937153E-01
6.796875E-02 9.945312E-01 -7.968717E-01
8.593750E-02 9.843750E-01 -7.849531E-01
9.375000E-02 9.843750E-01 -7.793561E-01
9.375000E-02 9.921875E-01 -7.800906E-01
9.375000E-02 1.000000E+00 -7.801991E-01
8.593750E-02 1.000000E+00 -7.859227E-01
8.281250E-02 9.890625E-01 -7.876023E-01
8.828125E-02 9.898438E-01 -7.837965E-01
8.906250E-02 9.953125E-01 -7.835995E-01
8.359375E-02 9.945312E-01 -7.874477E-01
7.031250E-02 9.687500E-01 -7.917935E-01
7.812500E-02 9.687500E-01 -7.871618E-01
7.812500E-02 9.765625E-01 -7.888572E-01
6.718750E-02 9.734375E-01 -7.946140E-01
7.265625E-02 9.742188E-01 -7.916025E-01
7.343750E-02 9.796875E-01 -7.921967E-01
6.796875E-02 9.789062E-01 -7.952537E-01
8.593750E-02 9.687500E-01 -7.821154E-01
9.375000E-02 9.687500E-01 -7.765388E-01
9.375000E-02 9.765625E-01 -7.782113E-01
8.281250E-02 9.734375E-01 -7.853141E-01
8.828125E-02 9.742188E-01 -7.816115E-01
8.906250E-02 9.796875E-01 -7.821002E-01
8.359375E-02 9.789062E-01 -7.858489E-01
1.015625E-01 9.843750E-01 -7.733488E-01
1.093750E-01 9.843750E-01 -7.668170E-01
1.093750E-01 9.921875E-01 -7.675397E-01
1.093750E-01 1.000000E+00 -7.676293E-01
1.015625E-01 1.000000E+00 -7.743084E-01
9.843750E-02 9.890625E-01 -7.763780E-01
1.039063E-01 9.898438E-01 -7.718893E-01
1.046875E-01 9.953125E-01 -7.715959E-01
9.921875E-02 9.945312E-01 -7.761267E-01
1.171875E-01 9.843750E-01 -7.598815E-01
1.250000E-01 9.843750E-01 -7.524306E-01
1.250000E-01 9.921875E-01 -7.531397E-01
1.250000E-01 1.000000E+00 -7.532103E-01
1.171875E-01 1.000000E+00 -7.608288E-01
1.140625E-01 9.890625E-01 -7.632833E-01
1.195313E-01 9.898438E-01 -7.581225E-01
1.203125E-01 9.953125E-01 -7.577334E-01
1.148437E-01 9.945312E-01 -7.629360E-01
1.015625E-01 9.687500E-01 -7.705531E-01
1.093750E-01 9.687500E-01 -7.640450E-01
1.093750E-01 9.765625E-01 -7.656906E-01
9.843750E-02 9.734375E-01 -7.741224E-01
1.039063E-01 9.742188E-01 -7.697375E-01
1.046875E-01 9.796875E-01 -7.701196E-01
9.921875E-02 9.789062E-01 -7.745510E-01
1.171875E-01 9.687500E-01 -7.571344E-01
1.250000E-01 9.687500E-01 -7.497106E-01
1.250000E-01 9.765625E-01 -7.513253E-01
1.140625E-01 9.734375E-01 -7.610658E-01
1.195313E-01 9.742188E-01 -7.560092E-01
1.203125E-01 9.796875E-01 -7.562837E-01
1.148437E-01 9.789062E-01 -7.613870E-01
7.031250E-02 9.531250E-01 -7.870133E-01
7.812500E-02 9.531250E-01 -7.824095E-01
7.812500E-02 9.609375E-01 -7.850517E-01
6.718750E-02 9.578125E-01 -7.903844E-01
7.265625E-02 9.585938E-01 -7.874825E-01
7.343750E-02 9.640625E-01 -7.887697E-01
6.796875E-02 9.632812E-01 -7.917200E-01
8.593750E-02 9.531250E-01 -7.773935E-01
9.375000E-02 9.531250E-01 -7.718507E-01
9.375000E-02 9.609375E-01 -7.744572E-01
8.281250E-02 9.578125E-01 -7.811341E-01
8.828125E-02 9.585938E-01 -7.775436E-01
8.906250E-02 9.640625E-01 -7.787168E-01
8.359375E-02 9.632812E-01 -7.823570E-01
7.031250E-02 9.375000E-01 -7.803370E-01
7.812500E-02 9.375000E-01 -7.757724E-01
7.812500E-02 9.453125E-01 -7.793550E-01
6.718750E-02 9.421875E-01 -7.842507E-01
7.265625E-02 9.429688E-01 -7.814655E-01
7.343750E-02 9.484375E-01 -7.834424E-01
6.796875E-02 9.476562E-01 -7.862789E-01
8.593750E-02 9.375000E-01 -7.707989E-01
9.375000E-02 9.375000E-01 -7.653032E-01
9.375000E-02 9.453125E-01 -7.688374E-01
8.281250E-02 9.421875E-01 -7.750722E-01
8.828125E-02 9.429688E-01 -7.716025E-01
8.906250E-02 9.484375E-01 -7.734575E-01
8.359375E-02 9.476562E-01 -7.769803E-01
1.015625E-01 9.531250E-01 -7.659010E-01
1.093750E-01 9.531250E-01 -7.594324E-01
1.093750E-01 9.609375E-01 -7.619969E-01
9.843750E-02 9.578125E-01 -7.700019E-01
1.039063E-01 9.585938E-01 -7.657314E-01
1.046875E-01 9.640625E-01 -7.667880E-01
9.921875E-02 9.632812E-01 -7.711092E-01
1.171875E-01 9.531250E-01 -7.525634E-01
1.250000E-01 9.531250E-01 -7.451846E-01
1.250000E-01 9.609375E-01 -7.477009E-01
1.140625E-01 9.578125E-01 -7.570148E-01
1.195313E-01 9.585938E-01 -7.520745E-01
1.203125E-01 9.640625E-01 -7.530119E-01
1.148437E-01 9.632812E-01 -7.580038E-01
1.015625E-01 9.375000E-01 -7.594038E-01
1.093750E-01 9.375000E-01 -7.529902E-01
1.093750E-01 9.453125E-01 -7.564675E-01
9.843750E-02 9.421875E-01 -7.640264E-01
1.039063E-01 9.429688E-01 -7.598806E-01
1.046875E-01 9.484375E-01 -7.616092E-01
9.921875E-02 9.476562E-01 -7.658098E-01
1.171875E-01 9.375000E-01 -7.461793E-01
1.250000E-01 9.375000E-01 -7.388633E-01
1.250000E-01 9.453125E-01 -7.422752E-01
1.140625E-01 9.421875E-01 -7.511401E-01
1.195313E-01 9.429688E-01 -7.463281E-01
1.203125E-01 9.484375E-01 -7.479262E-01
[...]
CELL_DATA 57344
SCALARS sol float 1
LOOKUP_TABLE default
-8.146286E-01
-8.146663E-01
-8.149560E-01
-8.141884E-01
-8.149978E-01
-8.142213E-01
-8.151901E-01
-8.138610E-01
-8.137827E-01
-8.149978E-01
-8.142213E-01
-8.137780E-01
-8.153997E-01
-8.131935E-01
-8.131653E-01
-8.151901E-01
-8.146663E-01
-8.137780E-01
-8.131241E-01
-8.153997E-01
-8.129034E-01
-8.125343E-01
-8.127365E-01
-8.149560E-01
-8.146286E-01
-8.131241E-01
-8.137827E-01
-8.126520E-01
-8.121472E-01
-8.118803E-01
-8.118345E-01
-8.141884E-01
-8.127365E-01
-8.126520E-01
-8.131653E-01
-8.117896E-01
-8.115072E-01
-8.110156E-01
-8.113598E-01
-8.138610E-01
-8.118345E-01
-8.117896E-01
-8.129034E-01
-8.110757E-01
-8.106396E-01
-8.103617E-01
-8.104149E-01
-8.103809E-01
-8.131935E-01
-8.115072E-01
-8.113598E-01
-8.110757E-01
-8.121472E-01
-8.102233E-01
-8.096607E-01
-8.092378E-01
-8.093739E-01
-8.094852E-01
-8.125343E-01
-8.106396E-01
-8.103809E-01
-8.102233E-01
-8.118803E-01
-8.091283E-01
-8.091579E-01
-8.088486E-01
-8.088507E-01
-8.081550E-01
-8.084300E-01
-8.096607E-01
-8.104149E-01
-8.094852E-01
-8.091283E-01
-8.110156E-01
-8.082307E-01
-8.078407E-01
-8.074919E-01
-8.076716E-01
-8.071761E-01
-8.072940E-01
-8.088486E-01
-8.091579E-01
-8.093739E-01
-8.084300E-01
-8.082307E-01
-8.103617E-01
-8.069291E-01
-8.070321E-01
-8.069869E-01
-8.068380E-01
-8.058890E-01
-8.063475E-01
-8.074919E-01
-8.078407E-01
-8.088507E-01
-8.072940E-01
-8.069291E-01
-8.092378E-01
-8.060047E-01
-8.057582E-01
-8.056853E-01
-8.055483E-01
-8.049101E-01
-8.050947E-01
-8.048002E-01
-8.068380E-01
-8.069869E-01
-8.070321E-01
-8.076716E-01
-8.063475E-01
-8.060047E-01
-8.081550E-01
-8.044975E-01
-8.044728E-01
-8.043683E-01
-8.042467E-01
-8.033327E-01
-8.036326E-01
-8.038747E-01
-8.055483E-01
-8.056853E-01
-8.057582E-01
-8.071761E-01
-8.048002E-01
-8.044975E-01
-8.032693E-01
-8.031545E-01
-8.037144E-01
-8.031228E-01
-8.030122E-01
-8.028494E-01
-8.018289E-01
-8.022536E-01
-8.042467E-01
-8.050947E-01
-8.043683E-01
-8.044728E-01
-8.058890E-01
-8.038747E-01
-8.032693E-01
-8.019038E-01
-8.015334E-01
-8.019458E-01
-8.015674E-01
-8.012040E-01
-8.012502E-01
-8.005273E-01
-8.009098E-01
-8.030122E-01
-8.037144E-01
-8.036326E-01
-8.031228E-01
-8.031545E-01
-8.049101E-01
-8.022536E-01
-8.019038E-01
-8.001696E-01
-8.005291E-01
-8.005825E-01
-8.010443E-01
-8.006699E-01
-8.002251E-01
-7.988210E-01
-7.992161E-01
-8.012040E-01
-8.019458E-01
-8.028494E-01
-8.015674E-01
-8.015334E-01
-8.033327E-01
-8.009098E-01
-8.001696E-01
-7.988259E-01
-7.985332E-01
-7.986269E-01
-7.993520E-01
-7.990489E-01
-7.985164E-01
-7.975194E-01
-7.978350E-01
-7.975713E-01
-8.002251E-01
-8.006699E-01
-8.010443E-01
-8.012502E-01
-8.005291E-01
-8.005825E-01
-8.018289E-01
-7.992161E-01
-7.988259E-01
-7.968892E-01
-7.978793E-01
-7.975821E-01
-7.973094E-01
-7.973136E-01
-7.968953E-01
-7.954922E-01
-7.959552E-01
-7.961175E-01
-7.985164E-01
-7.990489E-01
-7.993520E-01
-8.005273E-01
-7.985332E-01
-7.986269E-01
-7.975713E-01
-7.968892E-01
-7.955219E-01
-7.961435E-01
-7.956454E-01
-7.955282E-01
-7.963347E-01
-7.958808E-01
-7.952413E-01
-7.949140E-01
-7.935711E-01
-7.939387E-01
-7.968953E-01
-7.978350E-01
-7.973136E-01
-7.978793E-01
-7.988210E-01
-7.975821E-01
-7.973094E-01
-7.961175E-01
-7.955219E-01
-7.933841E-01
-7.942068E-01
-7.938855E-01
-7.936114E-01
-7.941188E-01
-7.939099E-01
-7.929859E-01
-7.928985E-01
-7.919500E-01
-7.925728E-01
-7.952413E-01
-7.963347E-01
-7.959552E-01
-7.958808E-01
-7.961435E-01
-7.975194E-01
-7.956454E-01
-7.955282E-01
-7.939387E-01
-7.933841E-01
-7.916537E-01
-7.927822E-01
-7.932316E-01
-7.920094E-01
-7.918526E-01
-7.931267E-01
-7.924241E-01
-7.916843E-01
-7.898285E-01
-7.903251E-01
-7.929859E-01
-7.941188E-01
-7.949140E-01
-7.939099E-01
-7.942068E-01
-7.954922E-01
-7.938855E-01
-7.936114E-01
-7.925728E-01
-7.916537E-01
-7.897879E-01
-7.903426E-01
-7.908323E-01
-7.899519E-01
-7.896050E-01
-7.910201E-01
-7.904874E-01
-7.895607E-01
-7.882075E-01
-7.886532E-01
-7.885448E-01
-7.916843E-01
-7.924241E-01
-7.931267E-01
-7.928985E-01
-7.927822E-01
-7.932316E-01
-7.935711E-01
-7.920094E-01
-7.918526E-01
-7.903251E-01
-7.897879E-01
-7.874316E-01
-7.893636E-01
-7.893680E-01
-7.894287E-01
-7.884132E-01
-7.882174E-01
-7.883382E-01
-7.876240E-01
-7.857353E-01
-7.863604E-01
-7.862299E-01
-7.895607E-01
-7.904874E-01
-7.910201E-01
-7.919500E-01
-7.903426E-01
-7.908323E-01
-7.899519E-01
-7.896050E-01
-7.885448E-01
-7.874316E-01
-7.856541E-01
-7.872144E-01
-7.871204E-01
-7.872362E-01
-7.857952E-01
-7.856407E-01
-7.870366E-01
-7.867215E-01
-7.855545E-01
-7.850635E-01
-7.834016E-01
-7.840908E-01
-7.876240E-01
-7.886532E-01
-7.883382E-01
-7.893636E-01
-7.898285E-01
-7.893680E-01
-7.894287E-01
-7.884132E-01
-7.882174E-01
-7.862299E-01
-7.856541E-01
-7.831009E-01
-7.849668E-01
-7.849486E-01
-7.851413E-01
-7.844103E-01
-7.838289E-01
-7.843787E-01
-7.843397E-01
-7.828575E-01
-7.826366E-01
-7.814649E-01
-7.821449E-01
-7.855545E-01
-7.870366E-01
-7.863604E-01
-7.867215E-01
-7.872144E-01
-7.882075E-01
-7.871204E-01
-7.872362E-01
-7.857952E-01
-7.856407E-01
-7.840908E-01
-7.831009E-01
-7.813044E-01
-7.831254E-01
-7.839697E-01
-7.828946E-01
-7.829717E-01
-7.818571E-01
-7.815557E-01
-7.832984E-01
-7.822692E-01
-7.812364E-01
-7.789333E-01
-7.793548E-01
-7.828575E-01
-7.843787E-01
-7.850635E-01
-7.843397E-01
-7.849668E-01
-7.857353E-01
-7.849486E-01
-7.851413E-01
-7.844103E-01
-7.838289E-01
-7.821449E-01
-7.813044E-01
-7.785563E-01
-7.802479E-01
-7.811326E-01
-7.804294E-01
-7.804185E-01
-7.796680E-01
-7.790274E-01
-7.807826E-01
-7.800216E-01
-7.787030E-01
-7.769966E-01
-7.775714E-01
-7.775628E-01
-7.812364E-01
-7.822692E-01
-7.832984E-01
-7.826366E-01
-7.831254E-01
-7.839697E-01
-7.834016E-01
-7.828946E-01
-7.829717E-01
-7.818571E-01
-7.815557E-01
-7.793548E-01
-7.785563E-01
-7.763408E-01
-7.789463E-01
-7.792523E-01
-7.796462E-01
-7.788097E-01
-7.790141E-01
-7.771817E-01
-7.768427E-01
-7.774635E-01
-7.764554E-01
-7.740855E-01
-7.748711E-01
-7.747103E-01
-7.787030E-01
-7.800216E-01
-7.807826E-01
-7.814649E-01
-7.802479E-01
-7.811326E-01
-7.804294E-01
-7.804185E-01
-7.796680E-01
-7.790274E-01
-7.775628E-01
-7.763408E-01
-7.739924E-01
-7.763889E-01
-7.766991E-01
-7.770476E-01
-7.757586E-01
-7.760046E-01
-7.746390E-01
-7.739902E-01
-7.758424E-01
-7.756669E-01
-7.739753E-01
-7.733218E-01
-7.713447E-01
-7.725092E-01
-7.764554E-01
-7.775714E-01
-7.774635E-01
-7.789463E-01
-7.789333E-01
-7.792523E-01
-7.796462E-01
-7.788097E-01
-7.790141E-01
-7.771817E-01
-7.768427E-01
-7.747103E-01
-7.739924E-01
-7.710368E-01
-7.738358E-01
-7.741207E-01
-7.747797E-01
-7.743581E-01
-7.741159E-01
-7.726177E-01
-7.721818E-01
-7.727491E-01
-7.728799E-01
-7.708430E-01
-7.704893E-01
-7.690971E-01
-7.695964E-01
-7.739753E-01
-7.758424E-01
-7.748711E-01
-7.756669E-01
-7.763889E-01
-7.769966E-01
-7.766991E-01
-7.770476E-01
-7.757586E-01
-7.760046E-01
-7.746390E-01
-7.739902E-01
-7.725092E-01
-7.710368E-01
-7.688422E-01
-7.728191E-01
-7.715820E-01
-7.718938E-01
-7.722045E-01
-7.715056E-01
-7.714407E-01
-7.694005E-01
-7.690072E-01
-7.715831E-01
-7.702298E-01
-7.689063E-01
-7.661616E-01
-7.669824E-01
-7.708430E-01
-7.727491E-01
-7.733218E-01
-7.728799E-01
-7.738358E-01
-7.740855E-01
-7.741207E-01
-7.747797E-01
-7.743581E-01
-7.741159E-01
-7.726177E-01
-7.721818E-01
-7.695964E-01
-7.688422E-01
-7.656972E-01
-7.695510E-01
-7.682735E-01
-7.690268E-01
-7.693520E-01
-7.689130E-01
-7.687465E-01
-7.675984E-01
-7.667205E-01
-7.686641E-01
-7.676766E-01
-7.659693E-01
-7.639139E-01
-7.646164E-01
-7.645645E-01
-7.689063E-01
-7.702298E-01
-7.715831E-01
-7.704893E-01
-7.715820E-01
-7.728191E-01
-7.713447E-01
-7.718938E-01
-7.722045E-01
-7.715056E-01
-7.714407E-01
-7.694005E-01
-7.690072E-01
-7.669824E-01
-7.656972E-01
-7.634893E-01
-7.679855E-01
-7.672593E-01
-7.666524E-01
-7.673299E-01
-7.679341E-01
-7.662611E-01
-7.661598E-01
-7.644534E-01
-7.639752E-01
-7.647159E-01
-7.634161E-01
-7.605708E-01
-7.615152E-01
-7.611888E-01
-7.659693E-01
-7.676766E-01
-7.686641E-01
-7.690971E-01
-7.682735E-01
-7.695510E-01
-7.690268E-01
-7.693520E-01
-7.689130E-01
-7.687465E-01
-7.675984E-01
-7.667205E-01
-7.645645E-01
-7.634893E-01
-7.601571E-01
-7.649871E-01
-7.644068E-01
-7.636931E-01
-7.638531E-01
-7.644991E-01
-7.633210E-01
-7.630148E-01
-7.618529E-01
-7.608614E-01
-7.627792E-01
-7.627437E-01
-7.605315E-01
-7.597170E-01
-7.574296E-01
-7.589895E-01
-7.634161E-01
-7.646164E-01
-7.647159E-01
-7.666524E-01
-7.661616E-01
-7.672593E-01
-7.679855E-01
-7.673299E-01
-7.679341E-01
-7.662611E-01
-7.661598E-01
-7.644534E-01
-7.639752E-01
-7.611888E-01
-7.601571E-01
-7.574781E-01
-7.625515E-01
-7.614279E-01
-7.608405E-01
-7.624404E-01
-7.625379E-01
-7.612292E-01
-7.611990E-01
-7.587824E-01
-7.582693E-01
-7.592577E-01
-7.595583E-01
-7.569716E-01
-7.564858E-01
-7.548764E-01
-7.555596E-01
-7.605315E-01
-7.627792E-01
-7.615152E-01
-7.627437E-01
-7.636931E-01
-7.639139E-01
-7.644068E-01
-7.649871E-01
-7.638531E-01
-7.644991E-01
-7.633210E-01
-7.630148E-01
-7.618529E-01
-7.608614E-01
-7.589895E-01
-7.574781E-01
-7.546693E-01
-7.595771E-01
-7.598068E-01
-7.590334E-01
-7.581797E-01
-7.592954E-01
-7.594671E-01
-7.575926E-01
-7.576054E-01
-7.557763E-01
-7.548394E-01
-7.580089E-01
-7.563348E-01
-7.547239E-01
-7.515441E-01
-7.529575E-01
-7.569716E-01
-7.592577E-01
-7.597170E-01
-7.595583E-01
-7.608405E-01
-7.605708E-01
-7.614279E-01
-7.625515E-01
-7.624404E-01
-7.625379E-01
-7.612292E-01
-7.611990E-01
-7.587824E-01
-7.582693E-01
-7.555596E-01
-7.546693E-01
-7.511433E-01
-7.564320E-01
-7.561155E-01
-7.557716E-01
-7.544483E-01
-7.563056E-01
-7.566136E-01
-7.557847E-01
-7.552532E-01
-7.532946E-01
-7.526301E-01
-7.546938E-01
-7.534823E-01
-7.513902E-01
-7.489909E-01
-7.498194E-01
-7.494758E-01
-7.547239E-01
-7.563348E-01
-7.580089E-01
-7.564858E-01
-7.581797E-01
-7.598068E-01
-7.574296E-01
-7.590334E-01
-7.595771E-01
-7.592954E-01
-7.594671E-01
-7.575926E-01
-7.576054E-01
-7.557763E-01
-7.548394E-01
-7.529575E-01
-7.511433E-01
-7.485521E-01
-7.550040E-01
-7.540015E-01
-7.544747E-01
-7.534179E-01
-7.525116E-01
-7.534946E-01
-7.536312E-01
-7.523548E-01
-7.521176E-01
-7.495069E-01
-7.488866E-01
-7.501260E-01
-7.485377E-01
-7.452239E-01
-7.463246E-01
-7.464109E-01
-7.513902E-01
-7.534823E-01
-7.546938E-01
-7.548764E-01
-7.544483E-01
-7.561155E-01
-7.557716E-01
-7.564320E-01
-7.563056E-01
-7.566136E-01
-7.557847E-01
-7.552532E-01
-7.532946E-01
-7.526301E-01
-7.494758E-01
-7.485521E-01
-7.448455E-01
-7.511518E-01
-7.501075E-01
-7.510836E-01
-7.502729E-01
-7.491574E-01
-7.501641E-01
-7.502012E-01
-7.493613E-01
-7.488530E-01
-7.473083E-01
-7.461490E-01
-7.478783E-01
-7.479829E-01
-7.452555E-01
-7.442821E-01
-7.416898E-01
-7.435453E-01
-7.485377E-01
-7.498194E-01
-7.501260E-01
-7.525116E-01
-7.515441E-01
-7.534179E-01
-7.544747E-01
-7.540015E-01
-7.550040E-01
-7.534946E-01
-7.536312E-01
-7.523548E-01
-7.521176E-01
-7.495069E-01
-7.488866E-01
-7.464109E-01
-7.448455E-01
-7.422480E-01
-7.491229E-01
-7.486859E-01
-7.484864E-01
-7.469007E-01
-7.460123E-01
-7.480068E-01
-7.483823E-01
-7.461405E-01
-7.458697E-01
-7.436017E-01
-7.429561E-01
-7.439373E-01
-7.444068E-01
-7.412765E-01
-7.406599E-01
-7.388373E-01
-7.396156E-01
-7.452555E-01
-7.478783E-01
-7.463246E-01
-7.479829E-01
-7.491574E-01
-7.489909E-01
-7.502729E-01
-7.510836E-01
-7.501075E-01
-7.511518E-01
-7.501641E-01
-7.502012E-01
-7.493613E-01
-7.488530E-01
-7.473083E-01
-7.461490E-01
-7.435453E-01
-7.422480E-01
-7.383636E-01
-7.456640E-01
-7.452560E-01
-7.451197E-01
-7.449640E-01
-7.443445E-01
-7.429510E-01
-7.439596E-01
-7.443785E-01
-7.427495E-01
-7.421631E-01
-7.406117E-01
-7.392883E-01
-7.426087E-01
-7.406177E-01
-7.387233E-01
-7.351161E-01
-7.370316E-01
-7.412765E-01
-7.439373E-01
-7.442821E-01
-7.444068E-01
-7.460123E-01
-7.452239E-01
-7.469007E-01
-7.484864E-01
-7.486859E-01
-7.491229E-01
-7.480068E-01
-7.483823E-01
-7.461405E-01
-7.458697E-01
-7.436017E-01
-7.429561E-01
-7.396156E-01
-7.383636E-01
-7.352473E-01
-7.426580E-01
-7.418762E-01
-7.416898E-01
-7.408585E-01
-7.406956E-01
-7.388055E-01
-7.421503E-01
-7.419663E-01
-7.402100E-01
-7.399577E-01
-7.369889E-01
-7.363114E-01
-7.389054E-01
-7.374727E-01
-7.350011E-01
-7.322635E-01
-7.332161E-01
-7.330572E-01
-7.387233E-01
-7.406177E-01
-7.426087E-01
-7.406599E-01
-7.429510E-01
-7.449640E-01
-7.416898E-01
-7.443445E-01
-7.451197E-01
-7.452560E-01
-7.456640E-01
-7.439596E-01
-7.443785E-01
-7.427495E-01
-7.421631E-01
-7.406117E-01
-7.392883E-01
-7.370316E-01
-7.352473E-01
-7.320048E-01
-7.392870E-01
-7.402551E-01
-7.389128E-01
-7.388567E-01
-7.391462E-01
-7.377614E-01
-7.365579E-01
-7.384437E-01
-7.384480E-01
-7.360194E-01
-7.358118E-01
-7.335455E-01
-7.323371E-01
-7.337290E-01
-7.318560E-01
-7.280817E-01
-7.293361E-01
-7.300779E-01
-7.350011E-01
-7.374727E-01
-7.389054E-01
-7.388373E-01
-7.388055E-01
-7.408585E-01
-7.406956E-01
-7.416898E-01
-7.418762E-01
-7.426580E-01
-7.421503E-01
-7.419663E-01
-7.402100E-01
-7.399577E-01
-7.369889E-01
-7.363114E-01
-7.330572E-01
-7.320048E-01
-7.279425E-01
-7.355804E-01
-7.359949E-01
-7.352001E-01
-7.345547E-01
-7.353707E-01
-7.343315E-01
-7.328169E-01
-7.350643E-01
-7.350405E-01
-7.338268E-01
-7.330224E-01
-7.306301E-01
-7.297505E-01
-7.311758E-01
-7.314202E-01
-7.281841E-01
-7.270541E-01
-7.241632E-01
-7.260618E-01
-7.318560E-01
-7.332161E-01
-7.337290E-01
-7.365579E-01
-7.351161E-01
-7.377614E-01
-7.391462E-01
-7.388567E-01
-7.402551E-01
-7.389128E-01
-7.392870E-01
-7.384437E-01
-7.384480E-01
-7.360194E-01
-7.358118E-01
-7.335455E-01
-7.323371E-01
-7.300779E-01
-7.279425E-01
-7.249793E-01
-7.337628E-01
-7.329824E-01
-7.339032E-01
-7.331278E-01
-7.326180E-01
-7.305742E-01
-7.293869E-01
-7.317011E-01
-7.316733E-01
-7.298525E-01
-7.294530E-01
-7.263062E-01
-7.254726E-01
-7.268247E-01
-7.274619E-01
-7.237956E-01
-7.230497E-01
-7.210182E-01
-7.225744E-01
-7.281841E-01
-7.311758E-01
-7.293361E-01
-7.314202E-01
-7.328169E-01
-7.322635E-01
-7.343315E-01
-7.353707E-01
-7.345547E-01
-7.359949E-01
-7.352001E-01
-7.355804E-01
-7.350643E-01
-7.350405E-01
-7.338268E-01
-7.330224E-01
-7.306301E-01
-7.297505E-01
-7.260618E-01
-7.249793E-01
-7.207468E-01
-7.293583E-01
-7.285343E-01
-7.300645E-01
-7.294212E-01
-7.288673E-01
-7.283266E-01
-7.278623E-01
-7.259324E-01
-7.279333E-01
-7.276989E-01
-7.264817E-01
-7.256522E-01
-7.237355E-01
-7.223125E-01
-7.254194E-01
-7.231164E-01
-7.209431E-01
-7.169171E-01
-7.192900E-01
-7.237956E-01
-7.268247E-01
-7.270541E-01
-7.274619E-01
-7.293869E-01
-7.280817E-01
-7.305742E-01
-7.326180E-01
-7.331278E-01
-7.339032E-01
-7.329824E-01
-7.337628E-01
-7.317011E-01
-7.316733E-01
-7.298525E-01
-7.294530E-01
-7.263062E-01
-7.254726E-01
-7.225744E-01
-7.207468E-01
-7.177852E-01
-7.268920E-01
-7.267280E-01
-7.269132E-01
-7.256595E-01
-7.251607E-01
-7.238167E-01
-7.238353E-01
-7.213829E-01
-7.253422E-01
-7.255027E-01
-7.227266E-01
-7.222969E-01
-7.195030E-01
-7.187007E-01
-7.213369E-01
-7.196865E-01
-7.168412E-01
-7.137720E-01
-7.148463E-01
-7.148431E-01
-7.209431E-01
-7.231164E-01
-7.254194E-01
-7.230497E-01
-7.259324E-01
-7.283266E-01
-7.241632E-01
-7.278623E-01
-7.288673E-01
-7.294212E-01
-7.300645E-01
-7.285343E-01
-7.293583E-01
-7.279333E-01
-7.276989E-01
-7.264817E-01
-7.256522E-01
-7.237355E-01
-7.223125E-01
-7.192900E-01
-7.177852E-01
-7.133856E-01
-7.229994E-01
-7.227537E-01
-7.231618E-01
-7.237228E-01
-7.225509E-01
-7.219319E-01
-7.220371E-01
-7.203276E-01
-7.188298E-01
-7.207588E-01
-7.209645E-01
-7.189129E-01
-7.180644E-01
-7.161489E-01
-7.145158E-01
-7.155643E-01
-7.134113E-01
-7.091854E-01
-7.105906E-01
-7.119006E-01
-7.168412E-01
-7.196865E-01
-7.213369E-01
-7.210182E-01
-7.213829E-01
-7.238167E-01
-7.238353E-01
-7.251607E-01
-7.256595E-01
-7.269132E-01
-7.267280E-01
-7.268920E-01
-7.253422E-01
-7.255027E-01
-7.227266E-01
-7.222969E-01
-7.195030E-01
-7.187007E-01
-7.148431E-01
-7.133856E-01
-7.098624E-01
-7.194572E-01
-7.189966E-01
-7.191875E-01
-7.190650E-01
-7.184648E-01
-7.172324E-01
-7.178862E-01
-7.166210E-01
-7.147110E-01
-7.185775E-01
-7.181298E-01
-7.159547E-01
-7.154949E-01
-7.120109E-01
-7.111804E-01
-7.127118E-01
-7.130954E-01
-7.093585E-01
-7.080745E-01
-7.048920E-01
-7.074201E-01
-7.134113E-01
-7.148463E-01
-7.155643E-01
-7.188298E-01
-7.169171E-01
-7.203276E-01
-7.220371E-01
-7.219319E-01
-7.237228E-01
-7.225509E-01
-7.231618E-01
-7.227537E-01
-7.229994E-01
-7.207588E-01
-7.209645E-01
-7.189129E-01
-7.180644E-01
-7.161489E-01
-7.145158E-01
-7.119006E-01
-7.098624E-01
-7.062170E-01
-7.157141E-01
-7.173755E-01
-7.154989E-01
-7.161921E-01
-7.169154E-01
-7.158035E-01
-7.149848E-01
-7.124877E-01
-7.110044E-01
-7.143450E-01
-7.141926E-01
-7.112469E-01
-7.108339E-01
-7.081606E-01
-7.067000E-01
-7.079610E-01
-7.087646E-01
-7.045711E-01
-7.036976E-01
-7.014621E-01
-7.040908E-01
-7.093585E-01
-7.127118E-01
-7.105906E-01
-7.130954E-01
-7.147110E-01
-7.137720E-01
-7.166210E-01
-7.178862E-01
-7.172324E-01
-7.190650E-01
-7.184648E-01
-7.191875E-01
-7.189966E-01
-7.194572E-01
-7.185775E-01
-7.181298E-01
-7.159547E-01
-7.154949E-01
-7.120109E-01
-7.111804E-01
-7.074201E-01
-7.062170E-01
-7.016580E-01
-7.114816E-01
-7.125810E-01
-7.113635E-01
-7.113540E-01
-7.127062E-01
-7.118292E-01
-7.108590E-01
-7.099346E-01
-7.096267E-01
-7.071650E-01
-7.106015E-01
-7.102680E-01
-7.086958E-01
-7.076375E-01
-7.048424E-01
-7.037634E-01
-7.064825E-01
-7.038731E-01
-7.014260E-01
-6.969910E-01
-6.995800E-01
-7.045711E-01
-7.079610E-01
-7.080745E-01
-7.087646E-01
-7.110044E-01
-7.091854E-01
-7.124877E-01
-7.149848E-01
-7.158035E-01
-7.169154E-01
-7.161921E-01
-7.173755E-01
-7.154989E-01
-7.157141E-01
-7.143450E-01
-7.141926E-01
-7.112469E-01
-7.108339E-01
-7.081606E-01
-7.067000E-01
-7.040908E-01
-7.016580E-01
-6.983506E-01
-7.093000E-01
-7.087270E-01
-7.100666E-01
-7.095549E-01
-7.094173E-01
-7.076946E-01
-7.068846E-01
-7.050311E-01
-7.052311E-01
-7.022225E-01
-7.067231E-01
-7.065422E-01
-7.042154E-01
-7.036653E-01
-7.000216E-01
-6.989908E-01
-7.020306E-01
-7.001665E-01
-6.969544E-01
-6.935610E-01
-6.947544E-01
-6.957023E-01
-7.014260E-01
-7.038731E-01
-7.064825E-01
-7.036976E-01
-7.071650E-01
-7.099346E-01
-7.048920E-01
-7.096267E-01
-7.108590E-01
-7.118292E-01
-7.127062E-01
-7.113540E-01
-7.125810E-01
-7.113635E-01
-7.114816E-01
-7.106015E-01
-7.102680E-01
-7.086958E-01
-7.076375E-01
-7.048424E-01
-7.037634E-01
-6.995800E-01
-6.983506E-01
-6.936330E-01
-7.043803E-01
-7.037618E-01
-7.058091E-01
-7.053225E-01
-7.052944E-01
-7.054470E-01
-7.044484E-01
-7.032679E-01
-7.031886E-01
-7.011585E-01
-6.993700E-01
-7.025484E-01
-7.020618E-01
-7.004946E-01
-6.993677E-01
-6.971068E-01
-6.954404E-01
-6.956758E-01
-6.932478E-01
-6.885807E-01
-6.901331E-01
-6.920320E-01
-6.969544E-01
-7.001665E-01
-7.020306E-01
-7.014621E-01
-7.022225E-01
-7.050311E-01
-7.052311E-01
-7.068846E-01
-7.076946E-01
-7.094173E-01
-7.095549E-01
-7.100666E-01
-7.087270E-01
-7.093000E-01
-7.067231E-01
-7.065422E-01
-7.042154E-01
-7.036653E-01
-7.000216E-01
-6.989908E-01
-6.957023E-01
-6.936330E-01
-6.903365E-01
-7.015072E-01
-7.015970E-01
-7.021408E-01
-7.011967E-01
-7.010619E-01
-7.004027E-01
-6.999987E-01
-6.981822E-01
-6.986723E-01
-6.971842E-01
-6.948833E-01
-6.995545E-01
-6.995157E-01
-6.962448E-01
-6.956682E-01
-6.923892E-01
-6.914428E-01
-6.925308E-01
-6.930528E-01
-6.888240E-01
-6.873892E-01
-6.839227E-01
-6.871099E-01
-6.932478E-01
-6.947544E-01
-6.956758E-01
-6.993700E-01
-6.969910E-01
-7.011585E-01
-7.031886E-01
-7.032679E-01
-7.054470E-01
-7.044484E-01
-7.052944E-01
-7.053225E-01
-7.058091E-01
-7.037618E-01
-7.043803E-01
-7.025484E-01
-7.020618E-01
-7.004946E-01
-6.993677E-01
-6.971068E-01
-6.954404E-01
-6.920320E-01
-6.903365E-01
-6.854638E-01
-6.972117E-01
-6.971166E-01
-6.980308E-01
-6.992600E-01
-6.975730E-01
-6.976765E-01
-6.982006E-01
-6.967548E-01
-6.956290E-01
-6.926847E-01
-6.909090E-01
-6.944743E-01
-6.944827E-01
-6.920409E-01
-6.909506E-01
-6.887001E-01
-6.867825E-01
-6.873919E-01
-6.883597E-01
-6.836491E-01
-6.826502E-01
-6.802161E-01
-6.838385E-01
-6.888240E-01
-6.925308E-01
-6.901331E-01
-6.930528E-01
-6.948833E-01
-6.935610E-01
-6.971842E-01
-6.986723E-01
-6.981822E-01
-7.004027E-01
-6.999987E-01
-7.010619E-01