# vtk DataFile Version 2.0
Grille
ASCII
DATASET POLYDATA
POINTS 481 float
0.000000E+00 8.750000E-01 -8.867952E-01
6.250000E-02 8.750000E-01 -8.730505E-01
1.250000E-01 8.750000E-01 -8.204757E-01
1.250000E-01 9.375000E-01 -8.730505E-01
1.250000E-01 1.000000E+00 -8.867952E-01
6.250000E-02 1.000000E+00 -9.451482E-01
0.000000E+00 1.000000E+00 -9.605949E-01
0.000000E+00 9.375000E-01 -9.451482E-01
3.750000E-02 9.125000E-01 -9.219432E-01
8.125000E-02 9.187500E-01 -9.012028E-01
8.750000E-02 9.625000E-01 -9.219432E-01
4.375000E-02 9.562500E-01 -9.465680E-01
1.875000E-01 8.750000E-01 -7.401238E-01
2.500000E-01 8.750000E-01 -6.280532E-01
2.500000E-01 9.375000E-01 -6.681971E-01
2.500000E-01 1.000000E+00 -6.774324E-01
1.875000E-01 1.000000E+00 -8.015748E-01
1.625000E-01 9.125000E-01 -8.107982E-01
2.062500E-01 9.187500E-01 -7.416559E-01
2.125000E-01 9.625000E-01 -7.513889E-01
1.687500E-01 9.562500E-01 -8.254799E-01
0.000000E+00 7.500000E-01 -6.774324E-01
6.250000E-02 7.500000E-01 -6.681971E-01
1.250000E-01 7.500000E-01 -6.280532E-01
1.250000E-01 8.125000E-01 -7.401238E-01
0.000000E+00 8.125000E-01 -8.015748E-01
3.750000E-02 7.875000E-01 -7.513889E-01
8.125000E-02 7.937500E-01 -7.416559E-01
8.750000E-02 8.375000E-01 -8.107982E-01
4.375000E-02 8.312500E-01 -8.254799E-01
1.875000E-01 7.500000E-01 -5.664468E-01
2.500000E-01 7.500000E-01 -4.808542E-01
2.500000E-01 8.125000E-01 -5.664468E-01
1.625000E-01 7.875000E-01 -6.607776E-01
2.062500E-01 7.937500E-01 -6.104721E-01
2.125000E-01 8.375000E-01 -6.607776E-01
1.687500E-01 8.312500E-01 -7.199934E-01
3.125000E-01 8.750000E-01 -4.945201E-01
3.750000E-01 8.750000E-01 -3.400152E-01
3.750000E-01 9.375000E-01 -3.616167E-01
3.750000E-01 1.000000E+00 -3.649365E-01
3.125000E-01 1.000000E+00 -5.359688E-01
2.875000E-01 9.125000E-01 -5.762166E-01
3.312500E-01 9.187500E-01 -4.691986E-01
3.375000E-01 9.625000E-01 -4.664424E-01
2.937500E-01 9.562500E-01 -5.787200E-01
4.375000E-01 8.750000E-01 -1.736301E-01
5.000000E-01 8.750000E-01 -2.130503E-04
5.000000E-01 9.375000E-01 1.647380E-05
5.000000E-01 1.000000E+00 3.117569E-03
4.375000E-01 1.000000E+00 -1.887665E-01
4.125000E-01 9.125000E-01 -2.539112E-01
4.562500E-01 9.187500E-01 -1.253101E-01
4.625000E-01 9.625000E-01 -1.104842E-01
4.187500E-01 9.562500E-01 -2.438551E-01
3.125000E-01 7.500000E-01 -3.784602E-01
3.750000E-01 7.500000E-01 -2.604494E-01
3.750000E-01 8.125000E-01 -3.065334E-01
2.875000E-01 7.875000E-01 -4.695689E-01
3.312500E-01 7.937500E-01 -3.863494E-01
3.375000E-01 8.375000E-01 -4.101595E-01
2.937500E-01 8.312500E-01 -5.048944E-01
4.375000E-01 7.500000E-01 -1.328564E-01
5.000000E-01 7.500000E-01 -3.936656E-04
5.000000E-01 8.125000E-01 4.691341E-05
4.125000E-01 7.875000E-01 -2.068726E-01
4.562500E-01 7.937500E-01 -1.034085E-01
4.625000E-01 8.375000E-01 -9.709837E-02
4.187500E-01 8.312500E-01 -2.129298E-01
0.000000E+00 6.250000E-01 -3.649365E-01
6.250000E-02 6.250000E-01 -3.616167E-01
1.250000E-01 6.250000E-01 -3.400152E-01
1.250000E-01 6.875000E-01 -4.945201E-01
0.000000E+00 6.875000E-01 -5.359688E-01
3.750000E-02 6.625000E-01 -4.664424E-01
8.125000E-02 6.687500E-01 -4.691986E-01
8.750000E-02 7.125000E-01 -5.762166E-01
4.375000E-02 7.062500E-01 -5.787200E-01
1.875000E-01 6.250000E-01 -3.065334E-01
2.500000E-01 6.250000E-01 -2.604494E-01
2.500000E-01 6.875000E-01 -3.784602E-01
1.625000E-01 6.625000E-01 -4.101595E-01
2.062500E-01 6.687500E-01 -3.863494E-01
2.125000E-01 7.125000E-01 -4.695689E-01
1.687500E-01 7.062500E-01 -5.048944E-01
0.000000E+00 5.000000E-01 3.117569E-03
6.250000E-02 5.000000E-01 1.647380E-05
1.250000E-01 5.000000E-01 -2.130503E-04
1.250000E-01 5.625000E-01 -1.736301E-01
0.000000E+00 5.625000E-01 -1.887665E-01
3.750000E-02 5.375000E-01 -1.104842E-01
8.125000E-02 5.437500E-01 -1.253101E-01
8.750000E-02 5.875000E-01 -2.539112E-01
4.375000E-02 5.812500E-01 -2.438551E-01
1.875000E-01 5.000000E-01 4.691341E-05
2.500000E-01 5.000000E-01 -3.936656E-04
2.500000E-01 5.625000E-01 -1.328564E-01
1.625000E-01 5.375000E-01 -9.709837E-02
2.062500E-01 5.437500E-01 -1.034085E-01
2.125000E-01 5.875000E-01 -2.068726E-01
1.687500E-01 5.812500E-01 -2.129298E-01
3.125000E-01 6.250000E-01 -2.047832E-01
3.750000E-01 6.250000E-01 -1.412326E-01
3.750000E-01 6.875000E-01 -2.047832E-01
2.875000E-01 6.625000E-01 -2.914336E-01
3.312500E-01 6.687500E-01 -2.446819E-01
3.375000E-01 7.125000E-01 -2.914336E-01
2.937500E-01 7.062500E-01 -3.542033E-01
4.375000E-01 6.250000E-01 -7.185655E-02
5.000000E-01 6.250000E-01 -5.143488E-04
5.000000E-01 6.875000E-01 7.021088E-05
4.125000E-01 6.625000E-01 -1.283395E-01
4.562500E-01 6.687500E-01 -6.576387E-02
4.625000E-01 7.125000E-01 -6.893014E-02
4.187500E-01 7.062500E-01 -1.495879E-01
3.125000E-01 5.000000E-01 7.021088E-05
3.750000E-01 5.000000E-01 -5.143488E-04
3.750000E-01 5.625000E-01 -7.185655E-02
2.875000E-01 5.375000E-01 -6.893014E-02
3.312500E-01 5.437500E-01 -6.576387E-02
3.375000E-01 5.875000E-01 -1.283395E-01
2.937500E-01 5.812500E-01 -1.495879E-01
4.375000E-01 5.000000E-01 8.281938E-05
5.000000E-01 5.000000E-01 -5.567272E-04
5.000000E-01 5.625000E-01 8.281938E-05
4.125000E-01 5.375000E-01 -3.026793E-02
4.562500E-01 5.437500E-01 -1.810729E-02
4.625000E-01 5.875000E-01 -3.026793E-02
4.187500E-01 5.812500E-01 -6.347252E-02
5.625000E-01 8.750000E-01 1.736935E-01
6.250000E-01 8.750000E-01 3.396216E-01
6.250000E-01 9.375000E-01 3.616472E-01
6.250000E-01 1.000000E+00 3.706970E-01
5.625000E-01 1.000000E+00 1.871739E-01
5.375000E-01 9.125000E-01 1.070499E-01
5.812500E-01 9.187500E-01 2.376557E-01
5.875000E-01 9.625000E-01 2.622941E-01
5.437500E-01 9.562500E-01 1.281344E-01
6.875000E-01 8.750000E-01 4.945738E-01
7.500000E-01 8.750000E-01 6.277519E-01
7.500000E-01 9.375000E-01 6.682204E-01
7.500000E-01 1.000000E+00 6.818413E-01
6.875000E-01 1.000000E+00 5.346187E-01
6.625000E-01 9.125000E-01 4.517136E-01
7.062500E-01 9.187500E-01 5.644406E-01
7.125000E-01 9.625000E-01 5.951405E-01
6.687500E-01 9.562500E-01 4.806166E-01
5.625000E-01 7.500000E-01 1.329735E-01
6.250000E-01 7.500000E-01 2.597220E-01
6.250000E-01 8.125000E-01 3.066201E-01
5.375000E-01 7.875000E-01 8.731817E-02
5.812500E-01 7.937500E-01 1.952754E-01
5.875000E-01 8.375000E-01 2.307451E-01
5.437500E-01 8.312500E-01 1.114514E-01
6.875000E-01 7.500000E-01 3.785595E-01
7.500000E-01 7.500000E-01 4.802974E-01
7.500000E-01 8.125000E-01 5.665132E-01
6.625000E-01 7.875000E-01 3.682155E-01
7.062500E-01 7.937500E-01 4.642304E-01
7.125000E-01 8.375000E-01 5.234597E-01
6.687500E-01 8.312500E-01 4.188651E-01
8.125000E-01 8.750000E-01 7.401597E-01
8.750000E-01 8.750000E-01 8.203127E-01
8.750000E-01 9.375000E-01 8.730631E-01
8.750000E-01 1.000000E+00 8.891813E-01
8.125000E-01 1.000000E+00 8.006726E-01
7.875000E-01 9.125000E-01 7.276080E-01
8.312500E-01 9.187500E-01 8.052946E-01
8.375000E-01 9.625000E-01 8.373822E-01
7.937500E-01 9.562500E-01 7.599294E-01
9.375000E-01 8.750000E-01 8.730631E-01
1.000000E+00 8.750000E-01 8.891813E-01
1.000000E+00 9.375000E-01 9.448314E-01
1.000000E+00 1.000000E+00 9.617083E-01
9.375000E-01 1.000000E+00 9.448314E-01
9.125000E-01 9.125000E-01 8.927307E-01
9.562500E-01 9.187500E-01 9.235497E-01
9.625000E-01 9.625000E-01 9.521401E-01
9.187500E-01 9.562500E-01 9.235497E-01
8.125000E-01 7.500000E-01 5.665132E-01
8.750000E-01 7.500000E-01 6.277519E-01
8.750000E-01 8.125000E-01 7.401597E-01
7.875000E-01 7.875000E-01 5.930554E-01
8.312500E-01 7.937500E-01 6.625105E-01
8.375000E-01 8.375000E-01 7.364824E-01
7.937500E-01 8.312500E-01 6.625105E-01
9.375000E-01 7.500000E-01 6.682204E-01
1.000000E+00 7.500000E-01 6.818413E-01
1.000000E+00 8.125000E-01 8.006726E-01
9.125000E-01 7.875000E-01 7.276080E-01
9.562500E-01 7.937500E-01 7.599294E-01
9.625000E-01 8.375000E-01 8.373822E-01
9.187500E-01 8.312500E-01 8.052946E-01
5.625000E-01 6.250000E-01 7.200958E-02
6.250000E-01 6.250000E-01 1.402822E-01
6.250000E-01 6.875000E-01 2.049129E-01
5.375000E-01 6.625000E-01 5.429305E-02
5.812500E-01 6.687500E-01 1.231661E-01
5.875000E-01 7.125000E-01 1.640673E-01
5.437500E-01 7.062500E-01 7.780091E-02
6.875000E-01 6.250000E-01 2.049129E-01
7.500000E-01 6.250000E-01 2.597220E-01
7.500000E-01 6.875000E-01 3.785595E-01
6.625000E-01 6.625000E-01 2.286600E-01
7.062500E-01 6.687500E-01 2.933452E-01
7.125000E-01 7.125000E-01 3.720869E-01
6.687500E-01 7.062500E-01 2.933452E-01
5.625000E-01 5.000000E-01 8.281938E-05
6.250000E-01 5.000000E-01 -5.143488E-04
6.250000E-01 5.625000E-01 7.200958E-02
5.375000E-01 5.375000E-01 1.300230E-02
5.812500E-01 5.437500E-01 3.230595E-02
5.875000E-01 5.875000E-01 7.241169E-02
5.437500E-01 5.812500E-01 3.230595E-02
6.875000E-01 5.000000E-01 7.021088E-05
7.500000E-01 5.000000E-01 -3.936656E-04
7.500000E-01 5.625000E-01 1.329735E-01
6.625000E-01 5.375000E-01 5.429305E-02
7.062500E-01 5.437500E-01 7.780091E-02
7.125000E-01 5.875000E-01 1.640673E-01
6.687500E-01 5.812500E-01 1.231661E-01
8.125000E-01 6.250000E-01 3.066201E-01
8.750000E-01 6.250000E-01 3.396216E-01
8.750000E-01 6.875000E-01 4.945738E-01
7.875000E-01 6.625000E-01 3.682155E-01
8.312500E-01 6.687500E-01 4.188651E-01
8.375000E-01 7.125000E-01 5.234597E-01
7.937500E-01 7.062500E-01 4.642304E-01
9.375000E-01 6.250000E-01 3.616472E-01
1.000000E+00 6.250000E-01 3.706970E-01
1.000000E+00 6.875000E-01 5.346187E-01
9.125000E-01 6.625000E-01 4.517136E-01
9.562500E-01 6.687500E-01 4.806166E-01
9.625000E-01 7.125000E-01 5.951405E-01
9.187500E-01 7.062500E-01 5.644406E-01
8.125000E-01 5.000000E-01 4.691341E-05
8.750000E-01 5.000000E-01 -2.130503E-04
8.750000E-01 5.625000E-01 1.736935E-01
7.875000E-01 5.375000E-01 8.731817E-02
8.312500E-01 5.437500E-01 1.114514E-01
8.375000E-01 5.875000E-01 2.307451E-01
7.937500E-01 5.812500E-01 1.952754E-01
9.375000E-01 5.000000E-01 1.647380E-05
1.000000E+00 5.000000E-01 3.117569E-03
1.000000E+00 5.625000E-01 1.871739E-01
9.125000E-01 5.375000E-01 1.070499E-01
9.562500E-01 5.437500E-01 1.281344E-01
9.625000E-01 5.875000E-01 2.622941E-01
9.187500E-01 5.812500E-01 2.376557E-01
0.000000E+00 3.750000E-01 3.706970E-01
6.250000E-02 3.750000E-01 3.616472E-01
[...]
CELL_DATA 896
SCALARS sol float 1
LOOKUP_TABLE default
-9.029528E-01
-9.060685E-01
-9.271817E-01
-8.706377E-01
-9.305223E-01
-8.741755E-01
-9.447938E-01
-8.464087E-01
-8.420331E-01
-9.305223E-01
-8.741755E-01
-8.426545E-01
-9.605949E-01
-7.984938E-01
-7.985227E-01
-9.447938E-01
-9.060685E-01
-8.426545E-01
-7.978852E-01
-9.605949E-01
-7.791283E-01
-7.515002E-01
-7.704781E-01
-9.271817E-01
-9.029528E-01
-7.978852E-01
-8.420331E-01
-7.671876E-01
-7.269388E-01
-7.067309E-01
-7.109556E-01
-8.706377E-01
-7.704781E-01
-7.671876E-01
-7.985227E-01
-7.116392E-01
-6.867266E-01
-6.481339E-01
-6.829701E-01
-8.464087E-01
-7.109556E-01
-7.116392E-01
-7.791283E-01
-6.686396E-01
-6.298408E-01
-6.033646E-01
-6.110805E-01
-6.244762E-01
-7.984938E-01
-6.867266E-01
-6.829701E-01
-6.686396E-01
-7.269388E-01
-6.181482E-01
-5.713469E-01
-5.306304E-01
-5.449554E-01
-5.711692E-01
-7.515002E-01
-6.298408E-01
-6.244762E-01
-6.181482E-01
-7.067309E-01
-5.585529E-01
-5.175895E-01
-5.469402E-01
-5.091192E-01
-4.614095E-01
-5.164441E-01
-5.713469E-01
-6.110805E-01
-5.711692E-01
-5.585529E-01
-6.481339E-01
-5.104640E-01
-4.394991E-01
-4.729047E-01
-4.371393E-01
-4.029156E-01
-4.563565E-01
-5.175895E-01
-5.469402E-01
-5.449554E-01
-5.164441E-01
-5.104640E-01
-6.033646E-01
-4.471506E-01
-3.947298E-01
-4.193096E-01
-4.369622E-01
-3.269575E-01
-4.152501E-01
-4.394991E-01
-4.729047E-01
-5.091192E-01
-4.563565E-01
-4.471506E-01
-5.306304E-01
-4.072492E-01
-3.211395E-01
-3.559962E-01
-3.717108E-01
-2.684636E-01
-2.870965E-01
-3.453445E-01
-3.947298E-01
-4.193096E-01
-4.369622E-01
-4.371393E-01
-4.152501E-01
-4.072492E-01
-4.614095E-01
-3.431837E-01
-2.578262E-01
-2.881954E-01
-3.211156E-01
-1.819833E-01
-2.084235E-01
-3.133736E-01
-3.211395E-01
-3.559962E-01
-3.717108E-01
-4.029156E-01
-3.453445E-01
-3.431837E-01
-2.982816E-01
-2.434261E-01
-1.859025E-01
-2.426250E-01
-2.602444E-01
-1.616013E-01
-1.010734E-01
-2.548797E-01
-2.578262E-01
-2.870965E-01
-2.881954E-01
-3.211156E-01
-3.269575E-01
-3.133736E-01
-2.982816E-01
-2.496926E-01
-1.621748E-01
-1.011328E-01
-1.745973E-01
-2.017505E-01
-8.078928E-02
-3.776004E-02
-2.055581E-01
-1.859025E-01
-2.434261E-01
-2.084235E-01
-2.426250E-01
-2.602444E-01
-2.684636E-01
-2.548797E-01
-2.496926E-01
-1.986144E-01
-1.387612E-01
-9.181304E-02
-4.263894E-02
-1.491339E-01
-1.813292E-01
4.399517E-02
-1.612160E-01
-1.011328E-01
-1.621748E-01
-1.616013E-01
-1.745973E-01
-2.017505E-01
-1.819833E-01
-2.055581E-01
-1.986144E-01
-1.597294E-01
-6.868374E-02
-3.331913E-02
3.645232E-02
-7.956061E-02
-1.176767E-01
1.073085E-01
8.059538E-02
-1.141904E-01
-4.263894E-02
-9.181304E-02
-1.387612E-01
-8.078928E-02
-1.491339E-01
-1.813292E-01
-1.010734E-01
-1.612160E-01
-1.597294E-01
-1.149601E-01
-3.479131E-02
3.865354E-02
9.494623E-02
-6.857498E-02
-9.479597E-02
1.943691E-01
1.598390E-01
-8.966105E-02
3.645232E-02
-3.331913E-02
-6.868374E-02
-3.776004E-02
-7.956061E-02
-1.176767E-01
-1.141904E-01
-1.149601E-01
-9.162652E-02
2.959507E-02
9.714745E-02
6.813157E-02
1.740864E-01
-2.380568E-02
-4.612172E-02
2.105190E-01
2.746502E-01
-4.587599E-02
9.494623E-02
8.059538E-02
3.865354E-02
-3.479131E-02
4.399517E-02
-6.857498E-02
-9.479597E-02
-8.966105E-02
-9.162652E-02
-5.526336E-02
7.436437E-02
1.732448E-01
1.337427E-01
2.526299E-01
2.742726E-02
-2.164702E-02
2.878602E-01
3.331441E-01
-3.489701E-02
1.740864E-01
9.714745E-02
1.598390E-01
6.813157E-02
2.959507E-02
1.073085E-01
-2.380568E-02
-4.612172E-02
-4.587599E-02
-5.526336E-02
-3.639894E-02
7.219656E-02
1.396865E-01
1.805649E-01
2.496612E-01
3.159433E-01
4.529534E-02
1.823224E-02
4.082500E-01
-1.066804E-02
2.526299E-01
1.732448E-01
2.105190E-01
1.337427E-01
7.436437E-02
1.943691E-01
2.742726E-02
-2.164702E-02
-3.489701E-02
-3.639894E-02
-1.653810E-02
1.257455E-01
1.983357E-01
2.447998E-01
2.944305E-01
3.884946E-01
8.728531E-02
4.246121E-02
4.667439E-01
4.360173E-01
1.202542E-02
3.159433E-01
2.496612E-01
1.805649E-01
2.878602E-01
1.396865E-01
7.219656E-02
2.746502E-01
4.529534E-02
1.823224E-02
-1.066804E-02
-1.653810E-02
-5.207172E-03
1.231215E-01
1.866636E-01
2.568296E-01
3.596178E-01
4.332639E-01
8.402060E-02
3.625439E-02
5.411306E-01
5.037674E-01
1.556331E-02
3.884946E-01
2.944305E-01
2.447998E-01
3.331441E-01
1.983357E-01
1.257455E-01
8.728531E-02
4.246121E-02
1.202542E-02
-5.207172E-03
4.093718E-03
1.644708E-01
2.108926E-01
3.149289E-01
4.229312E-01
3.685157E-01
5.075723E-01
1.138466E-01
5.910263E-02
5.505896E-01
6.085608E-01
2.753950E-02
4.332639E-01
4.360173E-01
3.596178E-01
2.568296E-01
4.082500E-01
1.866636E-01
1.231215E-01
8.402060E-02
3.625439E-02
1.556331E-02
4.093718E-03
4.093718E-03
1.586159E-01
2.562371E-01
3.391579E-01
4.822894E-01
4.217217E-01
5.679321E-01
9.524810E-02
4.693390E-02
6.126855E-01
6.533301E-01
1.556331E-02
5.075723E-01
4.229312E-01
5.037674E-01
3.685157E-01
3.149289E-01
4.667439E-01
2.108926E-01
1.644708E-01
1.138466E-01
5.910263E-02
2.753950E-02
4.093718E-03
-5.207172E-03
1.934182E-01
3.147310E-01
2.449109E-01
4.072410E-01
4.724017E-01
5.531268E-01
6.264260E-01
9.524810E-02
5.910263E-02
7.103524E-01
1.202542E-02
5.679321E-01
4.822894E-01
5.505896E-01
4.217217E-01
3.391579E-01
5.411306E-01
2.562371E-01
1.586159E-01
9.524810E-02
4.693390E-02
1.556331E-02
-5.207172E-03
-1.653810E-02
1.934182E-01
3.500241E-01
2.754726E-01
4.460372E-01
5.210147E-01
5.773558E-01
6.813922E-01
1.138466E-01
3.625439E-02
7.551217E-01
7.250596E-01
-1.066804E-02
6.264260E-01
5.531268E-01
4.724017E-01
6.126855E-01
4.072410E-01
3.147310E-01
6.085608E-01
2.449109E-01
1.934182E-01
9.524810E-02
5.910263E-02
1.202542E-02
-1.653810E-02
-3.639894E-02
1.586159E-01
2.449109E-01
3.222948E-01
4.134843E-01
5.093505E-01
6.258335E-01
7.056212E-01
8.402060E-02
4.246121E-02
8.055098E-01
7.710018E-01
-3.489701E-02
6.813922E-01
5.773558E-01
5.210147E-01
6.533301E-01
4.460372E-01
3.500241E-01
2.754726E-01
1.934182E-01
1.138466E-01
3.625439E-02
-1.066804E-02
-3.639894E-02
-5.526336E-02
1.644708E-01
2.562371E-01
3.500241E-01
4.134843E-01
5.523177E-01
6.843274E-01
6.127967E-01
7.637849E-01
8.728531E-02
1.823224E-02
8.068380E-01
8.498235E-01
-4.587599E-02
7.056212E-01
7.250596E-01
6.258335E-01
5.093505E-01
7.103524E-01
4.134843E-01
3.222948E-01
2.449109E-01
1.586159E-01
8.402060E-02
4.246121E-02
-3.489701E-02
-5.526336E-02
-9.162652E-02
1.231215E-01
2.108926E-01
3.147310E-01
4.460372E-01
5.523177E-01
7.179099E-01
6.454973E-01
7.967718E-01
4.529534E-02
-2.164702E-02
8.442351E-01
8.740525E-01
-8.966105E-02
7.637849E-01
6.843274E-01
7.710018E-01
6.127967E-01
5.523177E-01
7.551217E-01
4.134843E-01
3.500241E-01
2.562371E-01
1.644708E-01
8.728531E-02
1.823224E-02
-4.587599E-02
-9.162652E-02
-1.149601E-01
1.257455E-01
1.866636E-01
3.391579E-01
5.093505E-01
4.072410E-01
6.127967E-01
6.923195E-01
7.723839E-01
8.415411E-01
2.742726E-02
-4.612172E-02
9.043102E-01
-1.141904E-01
7.967718E-01
7.179099E-01
8.068380E-01
6.454973E-01
5.523177E-01
8.055098E-01
4.460372E-01
3.147310E-01
2.108926E-01
1.231215E-01
4.529534E-02
-2.164702E-02
-8.966105E-02
-1.149601E-01
-1.597294E-01
7.219656E-02
1.983357E-01
3.149289E-01
5.210147E-01
4.217217E-01
6.258335E-01
7.179099E-01
7.723839E-01
8.705539E-01
-2.380568E-02
-9.479597E-02
9.285391E-01
9.037181E-01
-1.612160E-01
8.415411E-01
7.723839E-01
6.923195E-01
8.442351E-01
6.127967E-01
5.093505E-01
8.498235E-01
4.072410E-01
3.391579E-01
1.866636E-01
1.257455E-01
2.742726E-02
-4.612172E-02
-1.141904E-01
-1.597294E-01
-1.986144E-01
7.436437E-02
2.568296E-01
1.396865E-01
3.685157E-01
4.724017E-01
5.773558E-01
6.843274E-01
7.967718E-01
8.705539E-01
-6.857498E-02
-1.176767E-01
9.472575E-01
9.208582E-01
-2.055581E-01
8.705539E-01
7.723839E-01
7.179099E-01
8.740525E-01
6.258335E-01
5.210147E-01
4.217217E-01
3.149289E-01
1.983357E-01
7.219656E-02
-2.380568E-02
-9.479597E-02
-1.612160E-01
-1.986144E-01
-2.496926E-01
2.959507E-02
2.447998E-01
1.337427E-01
3.596178E-01
4.822894E-01
5.531268E-01
7.056212E-01
8.415411E-01
7.637849E-01
9.037181E-01
-7.956061E-02
-1.813292E-01
9.402526E-01
9.617083E-01
-2.548797E-01
8.705539E-01
9.037181E-01
7.967718E-01
6.843274E-01
9.043102E-01
5.773558E-01
4.724017E-01
3.685157E-01
2.568296E-01
1.396865E-01
7.436437E-02
-6.857498E-02
-1.176767E-01
-2.055581E-01
-2.496926E-01
-2.982816E-01
6.813157E-02
-3.479131E-02
1.805649E-01
2.944305E-01
4.229312E-01
5.679321E-01
6.813922E-01
8.442351E-01
7.710018E-01
9.043102E-01
-1.491339E-01
-2.017505E-01
9.472575E-01
9.617083E-01
-3.133736E-01
9.037181E-01
8.415411E-01
9.208582E-01
7.637849E-01
7.056212E-01
9.285391E-01
5.531268E-01
4.822894E-01
3.596178E-01
2.447998E-01
1.337427E-01
2.959507E-02
-7.956061E-02
-1.813292E-01
-2.548797E-01
-2.982816E-01
-3.431837E-01
3.865354E-02
-6.868374E-02
1.732448E-01
2.496612E-01
4.332639E-01
6.264260E-01
5.075723E-01
7.250596E-01
8.068380E-01
8.740525E-01
9.285391E-01
-1.745973E-01
-2.602444E-01
-3.453445E-01
9.043102E-01
8.442351E-01
9.402526E-01
7.710018E-01
6.813922E-01
9.472575E-01
5.679321E-01
4.229312E-01
2.944305E-01
1.805649E-01
6.813157E-02
-3.479131E-02
-1.491339E-01
-2.017505E-01
-3.133736E-01
-3.431837E-01
-4.072492E-01
9.714745E-02
-3.331913E-02
-1.387612E-01
2.526299E-01
3.884946E-01
6.126855E-01
5.037674E-01
7.103524E-01
8.055098E-01
8.498235E-01
-2.426250E-01
-3.211156E-01
-4.152501E-01
9.285391E-01
8.740525E-01
8.068380E-01
9.472575E-01
7.250596E-01
6.264260E-01
9.617083E-01
5.075723E-01
4.332639E-01
2.496612E-01
1.732448E-01
3.865354E-02
-6.868374E-02
-1.745973E-01
-2.602444E-01
-3.453445E-01
-4.072492E-01
-4.471506E-01
9.494623E-02
-9.181304E-02
-1.621748E-01
3.159433E-01
1.740864E-01
4.360173E-01
5.505896E-01
6.533301E-01
7.551217E-01
-2.881954E-01
-3.717108E-01
-4.563565E-01
8.498235E-01
8.055098E-01
9.617083E-01
7.103524E-01
6.126855E-01
5.037674E-01
3.884946E-01
2.526299E-01
9.714745E-02
-3.331913E-02
-1.387612E-01
-2.426250E-01
-3.211156E-01
-4.152501E-01
-4.471506E-01
-5.104640E-01
3.645232E-02
-1.011328E-01
-2.434261E-01
2.878602E-01
1.598390E-01
4.082500E-01
5.411306E-01
6.085608E-01
-3.559962E-01
-4.369622E-01
-5.164441E-01
7.551217E-01
6.533301E-01
5.505896E-01
4.360173E-01
3.159433E-01
1.740864E-01
9.494623E-02
-9.181304E-02
-1.621748E-01
-2.881954E-01
-3.717108E-01
-4.563565E-01
-5.104640E-01
-5.585529E-01
8.059538E-02
-4.263894E-02
-1.859025E-01
-2.578262E-01
2.105190E-01
3.331441E-01
4.667439E-01
-4.193096E-01
-4.729047E-01
-5.711692E-01
6.085608E-01
5.411306E-01
4.082500E-01
2.878602E-01
1.598390E-01
3.645232E-02
-1.011328E-01
-2.434261E-01
-3.559962E-01
-4.369622E-01
-5.164441E-01
-5.585529E-01
-6.181482E-01
4.399517E-02
-8.078928E-02
-2.084235E-01
-3.211395E-01
1.943691E-01
2.746502E-01
-4.394991E-01
-5.469402E-01
-6.244762E-01
4.667439E-01
3.331441E-01
2.105190E-01
8.059538E-02
-4.263894E-02
-1.859025E-01
-2.578262E-01
-4.193096E-01
-4.729047E-01
-5.711692E-01
-6.181482E-01
-6.686396E-01
1.073085E-01
-3.776004E-02
-1.616013E-01
-2.870965E-01
-3.947298E-01
-5.175895E-01
-5.713469E-01
-6.829701E-01
2.746502E-01
1.943691E-01
4.399517E-02
-8.078928E-02
-2.084235E-01
-3.211395E-01
-4.394991E-01
-5.469402E-01
-6.244762E-01
-6.686396E-01
-7.116392E-01
-1.010734E-01
-1.819833E-01
-3.269575E-01
-4.371393E-01
-5.449554E-01
-6.298408E-01
-7.109556E-01
1.073085E-01
-3.776004E-02
-1.616013E-01
-2.870965E-01
-3.947298E-01
-5.175895E-01
-5.713469E-01
-6.829701E-01
-7.116392E-01
-7.671876E-01
-2.684636E-01
-4.029156E-01
-5.091192E-01
-6.110805E-01
-6.867266E-01
-7.704781E-01
-1.010734E-01
-1.819833E-01
-3.269575E-01
-4.371393E-01
-5.449554E-01
-6.298408E-01
-7.109556E-01
-7.671876E-01
-7.978852E-01
-4.614095E-01
-5.306304E-01
-6.481339E-01
-7.269388E-01
-7.985227E-01
-2.684636E-01
-4.029156E-01
-5.091192E-01
-6.110805E-01
-6.867266E-01
-7.704781E-01
-7.978852E-01
-8.426545E-01
-6.033646E-01
-7.067309E-01
-7.791283E-01
-8.420331E-01
-4.614095E-01
-5.306304E-01
-6.481339E-01
-7.269388E-01
-7.985227E-01
-8.426545E-01
-8.741755E-01
-7.515002E-01
-7.984938E-01
-8.706377E-01
-6.033646E-01
-7.067309E-01
-7.791283E-01
-8.420331E-01
-8.741755E-01
-9.060685E-01
-8.464087E-01
-9.029528E-01
-7.515002E-01
-7.984938E-01
-8.706377E-01
-9.060685E-01
-9.305223E-01
-9.271817E-01
-8.464087E-01
-9.029528E-01
-9.305223E-01
-9.447938E-01
-9.271817E-01
-9.447938E-01
-9.605949E-01
-9.605949E-01
