# vtk DataFile Version 2.0
Grille
ASCII
DATASET POLYDATA
POINTS 28929 float
0.000000E+00 9.843750E-01 -5.972771E-01
7.812500E-03 9.843750E-01 -5.971319E-01
1.562500E-02 9.843750E-01 -5.965696E-01
1.562500E-02 9.921875E-01 -5.971319E-01
1.562500E-02 1.000000E+00 -5.972771E-01
7.812500E-03 1.000000E+00 -5.978536E-01
0.000000E+00 1.000000E+00 -5.980040E-01
0.000000E+00 9.921875E-01 -5.978536E-01
4.687500E-03 9.890625E-01 -5.976251E-01
1.015625E-02 9.898438E-01 -5.974143E-01
1.093750E-02 9.953125E-01 -5.976251E-01
5.468750E-03 9.945312E-01 -5.978669E-01
2.343750E-02 9.843750E-01 -5.956934E-01
3.125000E-02 9.843750E-01 -5.944130E-01
3.125000E-02 9.921875E-01 -5.949733E-01
3.125000E-02 1.000000E+00 -5.951059E-01
2.343750E-02 1.000000E+00 -5.964164E-01
2.031250E-02 9.890625E-01 -5.964817E-01
2.578125E-02 9.898438E-01 -5.957488E-01
2.656250E-02 9.953125E-01 -5.958889E-01
2.109375E-02 9.945312E-01 -5.966530E-01
0.000000E+00 9.687500E-01 -5.951059E-01
7.812500E-03 9.687500E-01 -5.949733E-01
1.562500E-02 9.687500E-01 -5.944130E-01
1.562500E-02 9.765625E-01 -5.956934E-01
0.000000E+00 9.765625E-01 -5.964164E-01
4.687500E-03 9.734375E-01 -5.958889E-01
1.015625E-02 9.742188E-01 -5.957488E-01
1.093750E-02 9.796875E-01 -5.964817E-01
5.468750E-03 9.789062E-01 -5.966530E-01
2.343750E-02 9.687500E-01 -5.935399E-01
3.125000E-02 9.687500E-01 -5.922642E-01
3.125000E-02 9.765625E-01 -5.935399E-01
2.031250E-02 9.734375E-01 -5.947488E-01
2.578125E-02 9.742188E-01 -5.940880E-01
2.656250E-02 9.796875E-01 -5.947488E-01
2.109375E-02 9.789062E-01 -5.954415E-01
3.906250E-02 9.843750E-01 -5.928198E-01
4.687500E-02 9.843750E-01 -5.908244E-01
4.687500E-02 9.921875E-01 -5.913812E-01
4.687500E-02 1.000000E+00 -5.915010E-01
3.906250E-02 1.000000E+00 -5.935424E-01
3.593750E-02 9.890625E-01 -5.939013E-01
4.140625E-02 9.898438E-01 -5.926481E-01
4.218750E-02 9.953125E-01 -5.927171E-01
3.671875E-02 9.945312E-01 -5.940016E-01
5.468750E-02 9.843750E-01 -5.885180E-01
6.250000E-02 9.843750E-01 -5.858124E-01
6.250000E-02 9.921875E-01 -5.863645E-01
6.250000E-02 1.000000E+00 -5.864711E-01
5.468750E-02 1.000000E+00 -5.892385E-01
5.156250E-02 9.890625E-01 -5.898902E-01
5.703125E-02 9.898438E-01 -5.881196E-01
5.781250E-02 9.953125E-01 -5.881174E-01
5.234375E-02 9.945312E-01 -5.899193E-01
3.906250E-02 9.687500E-01 -5.906767E-01
4.687500E-02 9.687500E-01 -5.886885E-01
4.687500E-02 9.765625E-01 -5.899565E-01
3.593750E-02 9.734375E-01 -5.921759E-01
4.140625E-02 9.742188E-01 -5.909959E-01
4.218750E-02 9.796875E-01 -5.915831E-01
3.671875E-02 9.789062E-01 -5.927956E-01
5.468750E-02 9.687500E-01 -5.863904E-01
6.250000E-02 9.687500E-01 -5.836947E-01
6.250000E-02 9.765625E-01 -5.849519E-01
5.156250E-02 9.734375E-01 -5.881764E-01
5.703125E-02 9.742188E-01 -5.864801E-01
5.781250E-02 9.796875E-01 -5.869922E-01
5.234375E-02 9.789062E-01 -5.887215E-01
0.000000E+00 9.531250E-01 -5.915010E-01
7.812500E-03 9.531250E-01 -5.913812E-01
1.562500E-02 9.531250E-01 -5.908244E-01
1.562500E-02 9.609375E-01 -5.928198E-01
0.000000E+00 9.609375E-01 -5.935424E-01
4.687500E-03 9.578125E-01 -5.927171E-01
1.015625E-02 9.585938E-01 -5.926481E-01
1.093750E-02 9.640625E-01 -5.939013E-01
5.468750E-03 9.632812E-01 -5.940016E-01
2.343750E-02 9.531250E-01 -5.899565E-01
3.125000E-02 9.531250E-01 -5.886885E-01
3.125000E-02 9.609375E-01 -5.906767E-01
2.031250E-02 9.578125E-01 -5.915831E-01
2.578125E-02 9.585938E-01 -5.909959E-01
2.656250E-02 9.640625E-01 -5.921759E-01
2.109375E-02 9.632812E-01 -5.927956E-01
0.000000E+00 9.375000E-01 -5.864711E-01
7.812500E-03 9.375000E-01 -5.863645E-01
1.562500E-02 9.375000E-01 -5.858124E-01
1.562500E-02 9.453125E-01 -5.885180E-01
0.000000E+00 9.453125E-01 -5.892385E-01
4.687500E-03 9.421875E-01 -5.881174E-01
1.015625E-02 9.429688E-01 -5.881196E-01
1.093750E-02 9.484375E-01 -5.898902E-01
5.468750E-03 9.476562E-01 -5.899193E-01
2.343750E-02 9.375000E-01 -5.849519E-01
3.125000E-02 9.375000E-01 -5.836947E-01
3.125000E-02 9.453125E-01 -5.863904E-01
2.031250E-02 9.421875E-01 -5.869922E-01
2.578125E-02 9.429688E-01 -5.864801E-01
2.656250E-02 9.484375E-01 -5.881764E-01
2.109375E-02 9.476562E-01 -5.887215E-01
3.906250E-02 9.531250E-01 -5.871106E-01
4.687500E-02 9.531250E-01 -5.851345E-01
4.687500E-02 9.609375E-01 -5.871106E-01
3.593750E-02 9.578125E-01 -5.890239E-01
4.140625E-02 9.585938E-01 -5.879200E-01
4.218750E-02 9.640625E-01 -5.890239E-01
3.671875E-02 9.632812E-01 -5.901614E-01
5.468750E-02 9.531250E-01 -5.828502E-01
6.250000E-02 9.531250E-01 -5.801708E-01
6.250000E-02 9.609375E-01 -5.821301E-01
5.156250E-02 9.578125E-01 -5.850457E-01
5.703125E-02 9.585938E-01 -5.834277E-01
5.781250E-02 9.640625E-01 -5.844529E-01
5.234375E-02 9.632812E-01 -5.861055E-01
3.906250E-02 9.375000E-01 -5.821301E-01
4.687500E-02 9.375000E-01 -5.801708E-01
4.687500E-02 9.453125E-01 -5.828502E-01
3.593750E-02 9.421875E-01 -5.844529E-01
4.140625E-02 9.429688E-01 -5.834277E-01
4.218750E-02 9.484375E-01 -5.850457E-01
3.671875E-02 9.476562E-01 -5.861055E-01
5.468750E-02 9.375000E-01 -5.779059E-01
6.250000E-02 9.375000E-01 -5.752492E-01
6.250000E-02 9.453125E-01 -5.779059E-01
5.156250E-02 9.421875E-01 -5.805056E-01
5.703125E-02 9.429688E-01 -5.789698E-01
5.781250E-02 9.484375E-01 -5.805056E-01
5.234375E-02 9.476562E-01 -5.820775E-01
7.031250E-02 9.843750E-01 -5.827984E-01
7.812500E-02 9.843750E-01 -5.793891E-01
7.812500E-02 9.921875E-01 -5.799352E-01
7.812500E-02 1.000000E+00 -5.800284E-01
7.031250E-02 1.000000E+00 -5.835151E-01
6.718750E-02 9.890625E-01 -5.844580E-01
7.265625E-02 9.898438E-01 -5.821744E-01
7.343750E-02 9.953125E-01 -5.821009E-01
6.796875E-02 9.945312E-01 -5.844158E-01
8.593750E-02 9.843750E-01 -5.756748E-01
9.375000E-02 9.843750E-01 -5.715701E-01
9.375000E-02 9.921875E-01 -5.721088E-01
9.375000E-02 1.000000E+00 -5.721883E-01
8.593750E-02 1.000000E+00 -5.763859E-01
8.281250E-02 9.890625E-01 -5.776177E-01
8.828125E-02 9.898438E-01 -5.748266E-01
8.906250E-02 9.953125E-01 -5.746821E-01
8.359375E-02 9.945312E-01 -5.775044E-01
7.031250E-02 9.687500E-01 -5.806916E-01
7.812500E-02 9.687500E-01 -5.772947E-01
7.812500E-02 9.765625E-01 -5.785381E-01
6.718750E-02 9.734375E-01 -5.827600E-01
7.265625E-02 9.742188E-01 -5.805514E-01
7.343750E-02 9.796875E-01 -5.809872E-01
6.796875E-02 9.789062E-01 -5.832292E-01
8.593750E-02 9.687500E-01 -5.735937E-01
9.375000E-02 9.687500E-01 -5.695039E-01
9.375000E-02 9.765625E-01 -5.707305E-01
8.281250E-02 9.734375E-01 -5.759396E-01
8.828125E-02 9.742188E-01 -5.732242E-01
8.906250E-02 9.796875E-01 -5.735826E-01
8.359375E-02 9.789062E-01 -5.763318E-01
1.015625E-01 9.843750E-01 -5.671644E-01
1.093750E-01 9.843750E-01 -5.623741E-01
1.093750E-01 9.921875E-01 -5.629041E-01
1.093750E-01 1.000000E+00 -5.629698E-01
1.015625E-01 1.000000E+00 -5.678682E-01
9.843750E-02 9.890625E-01 -5.693860E-01
1.039063E-01 9.898438E-01 -5.660940E-01
1.046875E-01 9.953125E-01 -5.658788E-01
9.921875E-02 9.945312E-01 -5.692017E-01
1.171875E-01 9.843750E-01 -5.572876E-01
1.250000E-01 9.843750E-01 -5.518233E-01
1.250000E-01 9.921875E-01 -5.523433E-01
1.250000E-01 1.000000E+00 -5.523950E-01
1.171875E-01 1.000000E+00 -5.579824E-01
1.140625E-01 9.890625E-01 -5.597825E-01
1.195313E-01 9.898438E-01 -5.559976E-01
1.203125E-01 9.953125E-01 -5.557123E-01
1.148437E-01 9.945312E-01 -5.595278E-01
1.015625E-01 9.687500E-01 -5.651141E-01
1.093750E-01 9.687500E-01 -5.603411E-01
1.093750E-01 9.765625E-01 -5.615480E-01
9.843750E-02 9.734375E-01 -5.677318E-01
1.039063E-01 9.742188E-01 -5.645159E-01
1.046875E-01 9.796875E-01 -5.647961E-01
9.921875E-02 9.789062E-01 -5.680460E-01
1.171875E-01 9.687500E-01 -5.552730E-01
1.250000E-01 9.687500E-01 -5.498285E-01
1.250000E-01 9.765625E-01 -5.510126E-01
1.140625E-01 9.734375E-01 -5.581562E-01
1.195313E-01 9.742188E-01 -5.544477E-01
1.203125E-01 9.796875E-01 -5.546490E-01
1.148437E-01 9.789062E-01 -5.583918E-01
7.031250E-02 9.531250E-01 -5.771857E-01
7.812500E-02 9.531250E-01 -5.738094E-01
7.812500E-02 9.609375E-01 -5.757472E-01
6.718750E-02 9.578125E-01 -5.796581E-01
7.265625E-02 9.585938E-01 -5.775299E-01
7.343750E-02 9.640625E-01 -5.784739E-01
6.796875E-02 9.632812E-01 -5.806376E-01
8.593750E-02 9.531250E-01 -5.701308E-01
9.375000E-02 9.531250E-01 -5.660657E-01
9.375000E-02 9.609375E-01 -5.679773E-01
8.281250E-02 9.578125E-01 -5.728740E-01
8.828125E-02 9.585938E-01 -5.702408E-01
8.906250E-02 9.640625E-01 -5.711013E-01
8.359375E-02 9.632812E-01 -5.737709E-01
7.031250E-02 9.375000E-01 -5.722894E-01
7.812500E-02 9.375000E-01 -5.689418E-01
7.812500E-02 9.453125E-01 -5.715693E-01
6.718750E-02 9.421875E-01 -5.751597E-01
7.265625E-02 9.429688E-01 -5.731171E-01
7.343750E-02 9.484375E-01 -5.745669E-01
6.796875E-02 9.476562E-01 -5.766472E-01
8.593750E-02 9.375000E-01 -5.652943E-01
9.375000E-02 9.375000E-01 -5.612638E-01
9.375000E-02 9.453125E-01 -5.638558E-01
8.281250E-02 9.421875E-01 -5.684283E-01
8.828125E-02 9.429688E-01 -5.658837E-01
8.906250E-02 9.484375E-01 -5.672441E-01
8.359375E-02 9.476562E-01 -5.698277E-01
1.015625E-01 9.531250E-01 -5.617023E-01
1.093750E-01 9.531250E-01 -5.569583E-01
1.093750E-01 9.609375E-01 -5.588391E-01
9.843750E-02 9.578125E-01 -5.647098E-01
1.039063E-01 9.585938E-01 -5.615779E-01
1.046875E-01 9.640625E-01 -5.623528E-01
9.921875E-02 9.632812E-01 -5.655219E-01
1.171875E-01 9.531250E-01 -5.519206E-01
1.250000E-01 9.531250E-01 -5.465091E-01
1.250000E-01 9.609375E-01 -5.483545E-01
1.140625E-01 9.578125E-01 -5.551852E-01
1.195313E-01 9.585938E-01 -5.515621E-01
1.203125E-01 9.640625E-01 -5.522496E-01
1.148437E-01 9.632812E-01 -5.559106E-01
1.015625E-01 9.375000E-01 -5.569373E-01
1.093750E-01 9.375000E-01 -5.522337E-01
1.093750E-01 9.453125E-01 -5.547838E-01
9.843750E-02 9.421875E-01 -5.603275E-01
1.039063E-01 9.429688E-01 -5.572870E-01
1.046875E-01 9.484375E-01 -5.585547E-01
9.921875E-02 9.476562E-01 -5.616354E-01
1.171875E-01 9.375000E-01 -5.472386E-01
1.250000E-01 9.375000E-01 -5.418731E-01
1.250000E-01 9.453125E-01 -5.443754E-01
1.140625E-01 9.421875E-01 -5.508768E-01
1.195313E-01 9.429688E-01 -5.473477E-01
1.203125E-01 9.484375E-01 -5.485198E-01
[...]
CELL_DATA 57344
SCALARS sol float 1
LOOKUP_TABLE default
-5.974385E-01
-5.974662E-01
-5.976786E-01
-5.971156E-01
-5.977092E-01
-5.971398E-01
-5.978503E-01
-5.968756E-01
-5.968182E-01
-5.977092E-01
-5.971398E-01
-5.968147E-01
-5.980040E-01
-5.963860E-01
-5.963653E-01
-5.978503E-01
-5.974662E-01
-5.968147E-01
-5.963351E-01
-5.980040E-01
-5.961733E-01
-5.959025E-01
-5.960508E-01
-5.976786E-01
-5.974385E-01
-5.963351E-01
-5.968182E-01
-5.959889E-01
-5.956187E-01
-5.954229E-01
-5.953894E-01
-5.971156E-01
-5.960508E-01
-5.959889E-01
-5.963653E-01
-5.953564E-01
-5.951493E-01
-5.947888E-01
-5.950412E-01
-5.968756E-01
-5.953894E-01
-5.953564E-01
-5.961733E-01
-5.948328E-01
-5.945130E-01
-5.943092E-01
-5.943482E-01
-5.943233E-01
-5.963860E-01
-5.951493E-01
-5.950412E-01
-5.948328E-01
-5.956187E-01
-5.942077E-01
-5.937951E-01
-5.934850E-01
-5.935847E-01
-5.936664E-01
-5.959025E-01
-5.945130E-01
-5.943233E-01
-5.942077E-01
-5.954229E-01
-5.934046E-01
-5.934263E-01
-5.931995E-01
-5.932011E-01
-5.926909E-01
-5.928925E-01
-5.937951E-01
-5.943482E-01
-5.936664E-01
-5.934046E-01
-5.947888E-01
-5.927464E-01
-5.924604E-01
-5.922045E-01
-5.923363E-01
-5.919729E-01
-5.920594E-01
-5.931995E-01
-5.934263E-01
-5.935847E-01
-5.928925E-01
-5.927464E-01
-5.943092E-01
-5.917918E-01
-5.918673E-01
-5.918342E-01
-5.917250E-01
-5.910290E-01
-5.913652E-01
-5.922045E-01
-5.924604E-01
-5.932011E-01
-5.920594E-01
-5.917918E-01
-5.934850E-01
-5.911138E-01
-5.909331E-01
-5.908796E-01
-5.907791E-01
-5.903111E-01
-5.904465E-01
-5.902305E-01
-5.917250E-01
-5.918342E-01
-5.918673E-01
-5.923363E-01
-5.913652E-01
-5.911138E-01
-5.926909E-01
-5.900085E-01
-5.899904E-01
-5.899137E-01
-5.898246E-01
-5.891542E-01
-5.893741E-01
-5.895517E-01
-5.907791E-01
-5.908796E-01
-5.909331E-01
-5.919729E-01
-5.902305E-01
-5.900085E-01
-5.891077E-01
-5.890236E-01
-5.894341E-01
-5.890003E-01
-5.889192E-01
-5.887998E-01
-5.880514E-01
-5.883628E-01
-5.898246E-01
-5.904465E-01
-5.899137E-01
-5.899904E-01
-5.910290E-01
-5.895517E-01
-5.891077E-01
-5.881063E-01
-5.878347E-01
-5.881370E-01
-5.878596E-01
-5.875931E-01
-5.876269E-01
-5.870968E-01
-5.873773E-01
-5.889192E-01
-5.894341E-01
-5.893741E-01
-5.890003E-01
-5.890236E-01
-5.903111E-01
-5.883628E-01
-5.881063E-01
-5.868345E-01
-5.870981E-01
-5.871372E-01
-5.874759E-01
-5.872014E-01
-5.868751E-01
-5.858454E-01
-5.861352E-01
-5.875931E-01
-5.881370E-01
-5.887998E-01
-5.878596E-01
-5.878347E-01
-5.891542E-01
-5.873773E-01
-5.868345E-01
-5.858490E-01
-5.856344E-01
-5.857030E-01
-5.862349E-01
-5.860125E-01
-5.856220E-01
-5.848908E-01
-5.851222E-01
-5.849289E-01
-5.868751E-01
-5.872014E-01
-5.874759E-01
-5.876269E-01
-5.870981E-01
-5.871372E-01
-5.880514E-01
-5.861352E-01
-5.858490E-01
-5.844286E-01
-5.851548E-01
-5.849368E-01
-5.847368E-01
-5.847399E-01
-5.844331E-01
-5.834041E-01
-5.837437E-01
-5.838627E-01
-5.856220E-01
-5.860125E-01
-5.862349E-01
-5.870968E-01
-5.856344E-01
-5.857030E-01
-5.849289E-01
-5.844286E-01
-5.834259E-01
-5.838817E-01
-5.835164E-01
-5.834305E-01
-5.840220E-01
-5.836891E-01
-5.832201E-01
-5.829800E-01
-5.819952E-01
-5.822648E-01
-5.844331E-01
-5.851222E-01
-5.847399E-01
-5.851548E-01
-5.858454E-01
-5.849368E-01
-5.847368E-01
-5.838627E-01
-5.834259E-01
-5.818580E-01
-5.824614E-01
-5.822258E-01
-5.820247E-01
-5.823969E-01
-5.822436E-01
-5.815660E-01
-5.815019E-01
-5.808063E-01
-5.812630E-01
-5.832201E-01
-5.840220E-01
-5.837437E-01
-5.836891E-01
-5.838817E-01
-5.848908E-01
-5.835164E-01
-5.834305E-01
-5.822648E-01
-5.818580E-01
-5.805890E-01
-5.814166E-01
-5.817462E-01
-5.808498E-01
-5.807349E-01
-5.816693E-01
-5.811540E-01
-5.806115E-01
-5.792504E-01
-5.796146E-01
-5.815660E-01
-5.823969E-01
-5.829800E-01
-5.822436E-01
-5.824614E-01
-5.834041E-01
-5.822258E-01
-5.820247E-01
-5.812630E-01
-5.805890E-01
-5.792207E-01
-5.796274E-01
-5.799866E-01
-5.793409E-01
-5.790865E-01
-5.801243E-01
-5.797336E-01
-5.790540E-01
-5.780616E-01
-5.783884E-01
-5.783090E-01
-5.806115E-01
-5.811540E-01
-5.816693E-01
-5.815019E-01
-5.814166E-01
-5.817462E-01
-5.819952E-01
-5.808498E-01
-5.807349E-01
-5.796146E-01
-5.792207E-01
-5.774925E-01
-5.789095E-01
-5.789127E-01
-5.789572E-01
-5.782125E-01
-5.780689E-01
-5.781574E-01
-5.776337E-01
-5.762485E-01
-5.767069E-01
-5.766113E-01
-5.790540E-01
-5.797336E-01
-5.801243E-01
-5.808063E-01
-5.796274E-01
-5.799866E-01
-5.793409E-01
-5.790865E-01
-5.783090E-01
-5.774925E-01
-5.761889E-01
-5.773333E-01
-5.772643E-01
-5.773492E-01
-5.762924E-01
-5.761791E-01
-5.772029E-01
-5.769718E-01
-5.761159E-01
-5.757558E-01
-5.745370E-01
-5.750425E-01
-5.776337E-01
-5.783884E-01
-5.781574E-01
-5.789095E-01
-5.792504E-01
-5.789127E-01
-5.789572E-01
-5.782125E-01
-5.780689E-01
-5.766113E-01
-5.761889E-01
-5.743165E-01
-5.756849E-01
-5.756716E-01
-5.758128E-01
-5.752768E-01
-5.748504E-01
-5.752536E-01
-5.752250E-01
-5.741379E-01
-5.739760E-01
-5.731166E-01
-5.736154E-01
-5.761159E-01
-5.772029E-01
-5.767069E-01
-5.769718E-01
-5.773333E-01
-5.780616E-01
-5.772643E-01
-5.773492E-01
-5.762924E-01
-5.761791E-01
-5.750425E-01
-5.743165E-01
-5.729990E-01
-5.743344E-01
-5.749536E-01
-5.741652E-01
-5.742217E-01
-5.734043E-01
-5.731832E-01
-5.744613E-01
-5.737065E-01
-5.729490E-01
-5.712600E-01
-5.715691E-01
-5.741379E-01
-5.752536E-01
-5.757558E-01
-5.752250E-01
-5.756849E-01
-5.762485E-01
-5.756716E-01
-5.758128E-01
-5.752768E-01
-5.748504E-01
-5.736154E-01
-5.729990E-01
-5.709836E-01
-5.722241E-01
-5.728729E-01
-5.723572E-01
-5.723493E-01
-5.717989E-01
-5.713290E-01
-5.726163E-01
-5.720581E-01
-5.710911E-01
-5.698397E-01
-5.702612E-01
-5.702549E-01
-5.729490E-01
-5.737065E-01
-5.744613E-01
-5.739760E-01
-5.743344E-01
-5.749536E-01
-5.745370E-01
-5.741652E-01
-5.742217E-01
-5.734043E-01
-5.731832E-01
-5.715691E-01
-5.709836E-01
-5.693587E-01
-5.712695E-01
-5.714939E-01
-5.717829E-01
-5.711693E-01
-5.713193E-01
-5.699754E-01
-5.697268E-01
-5.701821E-01
-5.694427E-01
-5.677047E-01
-5.682809E-01
-5.681629E-01
-5.710911E-01
-5.720581E-01
-5.726163E-01
-5.731166E-01
-5.722241E-01
-5.728729E-01
-5.723572E-01
-5.723493E-01
-5.717989E-01
-5.713290E-01
-5.702549E-01
-5.693587E-01
-5.676364E-01
-5.693940E-01
-5.696215E-01
-5.698771E-01
-5.689317E-01
-5.691121E-01
-5.681106E-01
-5.676348E-01
-5.689932E-01
-5.688645E-01
-5.676238E-01
-5.671446E-01
-5.656946E-01
-5.665486E-01
-5.694427E-01
-5.702612E-01
-5.701821E-01
-5.712695E-01
-5.712600E-01
-5.714939E-01
-5.717829E-01
-5.711693E-01
-5.713193E-01
-5.699754E-01
-5.697268E-01
-5.681629E-01
-5.676364E-01
-5.654688E-01
-5.675216E-01
-5.677305E-01
-5.682138E-01
-5.679046E-01
-5.677269E-01
-5.666282E-01
-5.663086E-01
-5.667246E-01
-5.668206E-01
-5.653267E-01
-5.650673E-01
-5.640462E-01
-5.644124E-01
-5.676238E-01
-5.689932E-01
-5.682809E-01
-5.688645E-01
-5.693940E-01
-5.698397E-01
-5.696215E-01
-5.698771E-01
-5.689317E-01
-5.691121E-01
-5.681106E-01
-5.676348E-01
-5.665486E-01
-5.654688E-01
-5.638593E-01
-5.667760E-01
-5.658686E-01
-5.660973E-01
-5.663252E-01
-5.658126E-01
-5.657650E-01
-5.642687E-01
-5.639803E-01
-5.658694E-01
-5.648769E-01
-5.639064E-01
-5.618934E-01
-5.624954E-01
-5.653267E-01
-5.667246E-01
-5.671446E-01
-5.668206E-01
-5.675216E-01
-5.677047E-01
-5.677305E-01
-5.682138E-01
-5.679046E-01
-5.677269E-01
-5.666282E-01
-5.663086E-01
-5.644124E-01
-5.638593E-01
-5.615528E-01
-5.643792E-01
-5.634422E-01
-5.639947E-01
-5.642332E-01
-5.639112E-01
-5.637891E-01
-5.629471E-01
-5.623033E-01
-5.637287E-01
-5.630045E-01
-5.617523E-01
-5.602450E-01
-5.607602E-01
-5.607221E-01
-5.639064E-01
-5.648769E-01
-5.658694E-01
-5.650673E-01
-5.658686E-01
-5.667760E-01
-5.656946E-01
-5.660973E-01
-5.663252E-01
-5.658126E-01
-5.657650E-01
-5.642687E-01
-5.639803E-01
-5.624954E-01
-5.615528E-01
-5.599336E-01
-5.632311E-01
-5.626984E-01
-5.622533E-01
-5.627502E-01
-5.631933E-01
-5.619664E-01
-5.618921E-01
-5.606406E-01
-5.602899E-01
-5.608331E-01
-5.598799E-01
-5.577932E-01
-5.584858E-01
-5.582464E-01
-5.617523E-01
-5.630045E-01
-5.637287E-01
-5.640462E-01
-5.634422E-01
-5.643792E-01
-5.639947E-01
-5.642332E-01
-5.639112E-01
-5.637891E-01
-5.629471E-01
-5.623033E-01
-5.607221E-01
-5.599336E-01
-5.574898E-01
-5.610320E-01
-5.606064E-01
-5.600830E-01
-5.602004E-01
-5.606741E-01
-5.598102E-01
-5.595856E-01
-5.587335E-01
-5.580063E-01
-5.594128E-01
-5.593868E-01
-5.577643E-01
-5.571670E-01
-5.554895E-01
-5.566335E-01
-5.598799E-01
-5.607602E-01
-5.608331E-01
-5.622533E-01
-5.618934E-01
-5.626984E-01
-5.632311E-01
-5.627502E-01
-5.631933E-01
-5.619664E-01
-5.618921E-01
-5.606406E-01
-5.602899E-01
-5.582464E-01
-5.574898E-01
-5.555251E-01
-5.592458E-01
-5.584218E-01
-5.579910E-01
-5.591643E-01
-5.592358E-01
-5.582760E-01
-5.582539E-01
-5.564816E-01
-5.561053E-01
-5.568302E-01
-5.570506E-01
-5.551535E-01
-5.547973E-01
-5.536170E-01
-5.541180E-01
-5.577643E-01
-5.594128E-01
-5.584858E-01
-5.593868E-01
-5.600830E-01
-5.602450E-01
-5.606064E-01
-5.610320E-01
-5.602004E-01
-5.606741E-01
-5.598102E-01
-5.595856E-01
-5.587335E-01
-5.580063E-01
-5.566335E-01
-5.555251E-01
-5.534651E-01
-5.570644E-01
-5.572329E-01
-5.566657E-01
-5.560396E-01
-5.568578E-01
-5.569838E-01
-5.556090E-01
-5.556184E-01
-5.542770E-01
-5.535898E-01
-5.559143E-01
-5.546865E-01
-5.535052E-01
-5.511731E-01
-5.522096E-01
-5.551535E-01
-5.568302E-01
-5.571670E-01
-5.570506E-01
-5.579910E-01
-5.577932E-01
-5.584218E-01
-5.592458E-01
-5.591643E-01
-5.592358E-01
-5.582760E-01
-5.582539E-01
-5.564816E-01
-5.561053E-01
-5.541180E-01
-5.534651E-01
-5.508792E-01
-5.547579E-01
-5.545257E-01
-5.542735E-01
-5.533030E-01
-5.546651E-01
-5.548910E-01
-5.542831E-01
-5.538933E-01
-5.524569E-01
-5.519696E-01
-5.534830E-01
-5.525945E-01
-5.510603E-01
-5.493006E-01
-5.499083E-01
-5.496562E-01
-5.535052E-01
-5.546865E-01
-5.559143E-01
-5.547973E-01
-5.560396E-01
-5.572329E-01
-5.554895E-01
-5.566657E-01
-5.570644E-01
-5.568578E-01
-5.569838E-01
-5.556090E-01
-5.556184E-01
-5.542770E-01
-5.535898E-01
-5.522096E-01
-5.508792E-01
-5.489788E-01
-5.537106E-01
-5.529753E-01
-5.533224E-01
-5.525473E-01
-5.518827E-01
-5.526036E-01
-5.527037E-01
-5.517677E-01
-5.515937E-01
-5.496791E-01
-5.492241E-01
-5.501331E-01
-5.489683E-01
-5.465379E-01
-5.473452E-01
-5.474085E-01
-5.510603E-01
-5.525945E-01
-5.534830E-01
-5.536170E-01
-5.533030E-01
-5.545257E-01
-5.542735E-01
-5.547579E-01
-5.546651E-01
-5.548910E-01
-5.542831E-01
-5.538933E-01
-5.524569E-01
-5.519696E-01
-5.496562E-01
-5.489788E-01
-5.462604E-01
-5.508854E-01
-5.501195E-01
-5.508354E-01
-5.502408E-01
-5.494227E-01
-5.501611E-01
-5.501883E-01
-5.495722E-01
-5.491995E-01
-5.480666E-01
-5.472164E-01
-5.484847E-01
-5.485614E-01
-5.465611E-01
-5.458472E-01
-5.439461E-01
-5.453069E-01
-5.489683E-01
-5.499083E-01
-5.501331E-01
-5.518827E-01
-5.511731E-01
-5.525473E-01
-5.533224E-01
-5.529753E-01
-5.537106E-01
-5.526036E-01
-5.527037E-01
-5.517677E-01
-5.515937E-01
-5.496791E-01
-5.492241E-01
-5.474085E-01
-5.462604E-01
-5.443555E-01
-5.493974E-01
-5.490770E-01
-5.489306E-01
-5.477677E-01
-5.471162E-01
-5.485789E-01
-5.488543E-01
-5.472102E-01
-5.470116E-01
-5.453483E-01
-5.448748E-01
-5.455944E-01
-5.459387E-01
-5.436430E-01
-5.431908E-01
-5.418541E-01
-5.424249E-01
-5.465611E-01
-5.484847E-01
-5.473452E-01
-5.485614E-01
-5.494227E-01
-5.493006E-01
-5.502408E-01
-5.508354E-01
-5.501195E-01
-5.508854E-01
-5.501611E-01
-5.501883E-01
-5.495722E-01
-5.491995E-01
-5.480666E-01
-5.472164E-01
-5.453069E-01
-5.443555E-01
-5.415067E-01
-5.468607E-01
-5.465615E-01
-5.464615E-01
-5.463474E-01
-5.458930E-01
-5.448710E-01
-5.456107E-01
-5.459179E-01
-5.447233E-01
-5.442932E-01
-5.431554E-01
-5.421848E-01
-5.446200E-01
-5.431598E-01
-5.417705E-01
-5.391250E-01
-5.405298E-01
-5.436430E-01
-5.455944E-01
-5.458472E-01
-5.459387E-01
-5.471162E-01
-5.465379E-01
-5.477677E-01
-5.489306E-01
-5.490770E-01
-5.493974E-01
-5.485789E-01
-5.488543E-01
-5.472102E-01
-5.470116E-01
-5.453483E-01
-5.448748E-01
-5.424249E-01
-5.415067E-01
-5.392213E-01
-5.446562E-01
-5.440828E-01
-5.439461E-01
-5.433364E-01
-5.432170E-01
-5.418308E-01
-5.442838E-01
-5.441489E-01
-5.428609E-01
-5.426758E-01
-5.404985E-01
-5.400016E-01
-5.419040E-01
-5.408533E-01
-5.390406E-01
-5.370330E-01
-5.377316E-01
-5.376151E-01
-5.417705E-01
-5.431598E-01
-5.446200E-01
-5.431908E-01
-5.448710E-01
-5.463474E-01
-5.439461E-01
-5.458930E-01
-5.464615E-01
-5.465615E-01
-5.468607E-01
-5.456107E-01
-5.459179E-01
-5.447233E-01
-5.442932E-01
-5.431554E-01
-5.421848E-01
-5.405298E-01
-5.392213E-01
-5.368432E-01
-5.421839E-01
-5.428939E-01
-5.419095E-01
-5.418683E-01
-5.420807E-01
-5.410651E-01
-5.401824E-01
-5.415655E-01
-5.415686E-01
-5.397875E-01
-5.396353E-01
-5.379732E-01
-5.370869E-01
-5.381077E-01
-5.367341E-01
-5.339660E-01
-5.348860E-01
-5.354300E-01
-5.390406E-01
-5.408533E-01
-5.419040E-01
-5.418541E-01
-5.418308E-01
-5.433364E-01
-5.432170E-01
-5.439461E-01
-5.440828E-01
-5.446562E-01
-5.442838E-01
-5.441489E-01
-5.428609E-01
-5.426758E-01
-5.404985E-01
-5.400016E-01
-5.376151E-01
-5.368432E-01
-5.338640E-01
-5.394655E-01
-5.397695E-01
-5.391866E-01
-5.387133E-01
-5.393117E-01
-5.385496E-01
-5.374388E-01
-5.390871E-01
-5.390696E-01
-5.381795E-01
-5.375895E-01
-5.358350E-01
-5.351900E-01
-5.362352E-01
-5.364145E-01
-5.340412E-01
-5.332124E-01
-5.310923E-01
-5.324847E-01
-5.367341E-01
-5.377316E-01
-5.381077E-01
-5.401824E-01
-5.391250E-01
-5.410651E-01
-5.420807E-01
-5.418683E-01
-5.428939E-01
-5.419095E-01
-5.421839E-01
-5.415655E-01
-5.415686E-01
-5.397875E-01
-5.396353E-01
-5.379732E-01
-5.370869E-01
-5.354300E-01
-5.338640E-01
-5.316908E-01
-5.381325E-01
-5.375602E-01
-5.382355E-01
-5.376668E-01
-5.372930E-01
-5.357941E-01
-5.349233E-01
-5.366205E-01
-5.366001E-01
-5.352648E-01
-5.349718E-01
-5.326639E-01
-5.320526E-01
-5.330442E-01
-5.335115E-01
-5.308227E-01
-5.302757E-01
-5.287858E-01
-5.299271E-01
-5.340412E-01
-5.362352E-01
-5.348860E-01
-5.364145E-01
-5.374388E-01
-5.370330E-01
-5.385496E-01
-5.393117E-01
-5.387133E-01
-5.397695E-01
-5.391866E-01
-5.394655E-01
-5.390871E-01
-5.390696E-01
-5.381795E-01
-5.375895E-01
-5.358350E-01
-5.351900E-01
-5.324847E-01
-5.316908E-01
-5.285867E-01
-5.349023E-01
-5.342980E-01
-5.354202E-01
-5.349484E-01
-5.345422E-01
-5.341457E-01
-5.338052E-01
-5.323898E-01
-5.338573E-01
-5.336854E-01
-5.327926E-01
-5.321843E-01
-5.307786E-01
-5.297350E-01
-5.320136E-01
-5.303246E-01
-5.287307E-01
-5.257781E-01
-5.275183E-01
-5.308227E-01
-5.330442E-01
-5.332124E-01
-5.335115E-01
-5.349233E-01
-5.339660E-01
-5.357941E-01
-5.372930E-01
-5.376668E-01
-5.382355E-01
-5.375602E-01
-5.381325E-01
-5.366205E-01
-5.366001E-01
-5.352648E-01
-5.349718E-01
-5.326639E-01
-5.320526E-01
-5.299271E-01
-5.285867E-01
-5.264148E-01
-5.330936E-01
-5.329733E-01
-5.331091E-01
-5.321897E-01
-5.318238E-01
-5.308382E-01
-5.308518E-01
-5.290533E-01
-5.319570E-01
-5.320747E-01
-5.300387E-01
-5.297235E-01
-5.276745E-01
-5.270862E-01
-5.290195E-01
-5.278091E-01
-5.257224E-01
-5.234715E-01
-5.242594E-01
-5.242571E-01
-5.287307E-01
-5.303246E-01
-5.320136E-01
-5.302757E-01
-5.323898E-01
-5.341457E-01
-5.310923E-01
-5.338052E-01
-5.345422E-01
-5.349484E-01
-5.354202E-01
-5.342980E-01
-5.349023E-01
-5.338573E-01
-5.336854E-01
-5.327926E-01
-5.321843E-01
-5.307786E-01
-5.297350E-01
-5.275183E-01
-5.264148E-01
-5.231882E-01
-5.302388E-01
-5.300586E-01
-5.303579E-01
-5.307693E-01
-5.299099E-01
-5.294559E-01
-5.295331E-01
-5.282793E-01
-5.271808E-01
-5.285956E-01
-5.287464E-01
-5.272418E-01
-5.266195E-01
-5.252147E-01
-5.240170E-01
-5.247860E-01
-5.232070E-01
-5.201078E-01
-5.211383E-01
-5.220990E-01
-5.257224E-01
-5.278091E-01
-5.290195E-01
-5.287858E-01
-5.290533E-01
-5.308382E-01
-5.308518E-01
-5.318238E-01
-5.321897E-01
-5.331091E-01
-5.329733E-01
-5.330936E-01
-5.319570E-01
-5.320747E-01
-5.300387E-01
-5.297235E-01
-5.276745E-01
-5.270862E-01
-5.242571E-01
-5.231882E-01
-5.206043E-01
-5.276410E-01
-5.273032E-01
-5.274431E-01
-5.273533E-01
-5.269132E-01
-5.260093E-01
-5.264888E-01
-5.255610E-01
-5.241602E-01
-5.269958E-01
-5.266675E-01
-5.250723E-01
-5.247351E-01
-5.221800E-01
-5.215709E-01
-5.226940E-01
-5.229753E-01
-5.202347E-01
-5.192931E-01
-5.169590E-01
-5.188131E-01
-5.232070E-01
-5.242594E-01
-5.247860E-01
-5.271808E-01
-5.257781E-01
-5.282793E-01
-5.295331E-01
-5.294559E-01
-5.307693E-01
-5.299099E-01
-5.303579E-01
-5.300586E-01
-5.302388E-01
-5.285956E-01
-5.287464E-01
-5.272418E-01
-5.266195E-01
-5.252147E-01
-5.240170E-01
-5.220990E-01
-5.206043E-01
-5.179308E-01
-5.248958E-01
-5.261143E-01
-5.247380E-01
-5.252464E-01
-5.257769E-01
-5.249614E-01
-5.243609E-01
-5.225296E-01
-5.214418E-01
-5.238917E-01
-5.237800E-01
-5.216197E-01
-5.213167E-01
-5.193562E-01
-5.182850E-01
-5.192098E-01
-5.197991E-01
-5.167237E-01
-5.160831E-01
-5.144436E-01
-5.163714E-01
-5.202347E-01
-5.226940E-01
-5.211383E-01
-5.229753E-01
-5.241602E-01
-5.234715E-01
-5.255610E-01
-5.264888E-01
-5.260093E-01
-5.273533E-01
-5.269132E-01
-5.274431E-01
-5.273032E-01
-5.276410E-01
-5.269958E-01
-5.266675E-01
-5.250723E-01
-5.247351E-01
-5.221800E-01
-5.215709E-01
-5.188131E-01
-5.179308E-01
-5.145873E-01
-5.217918E-01
-5.225980E-01
-5.217051E-01
-5.216982E-01
-5.226898E-01
-5.220467E-01
-5.213351E-01
-5.206572E-01
-5.204314E-01
-5.186260E-01
-5.211463E-01
-5.209017E-01
-5.197487E-01
-5.189725E-01
-5.169226E-01
-5.161313E-01
-5.181255E-01
-5.162118E-01
-5.144171E-01
-5.111645E-01
-5.130633E-01
-5.167237E-01
-5.192098E-01
-5.192931E-01
-5.197991E-01
-5.214418E-01
-5.201078E-01
-5.225296E-01
-5.243609E-01
-5.249614E-01
-5.257769E-01
-5.252464E-01
-5.261143E-01
-5.247380E-01
-5.248958E-01
-5.238917E-01
-5.237800E-01
-5.216197E-01
-5.213167E-01
-5.193562E-01
-5.182850E-01
-5.163714E-01
-5.145873E-01
-5.121617E-01
-5.201918E-01
-5.197716E-01
-5.207540E-01
-5.203788E-01
-5.202778E-01
-5.190145E-01
-5.184204E-01
-5.170611E-01
-5.172077E-01
-5.150012E-01
-5.183019E-01
-5.181693E-01
-5.164628E-01
-5.160594E-01
-5.133872E-01
-5.126312E-01
-5.148605E-01
-5.134934E-01
-5.111377E-01
-5.086490E-01
-5.095243E-01
-5.102194E-01
-5.144171E-01
-5.162118E-01
-5.181255E-01
-5.160831E-01
-5.186260E-01
-5.206572E-01
-5.169590E-01
-5.204314E-01
-5.213351E-01
-5.220467E-01
-5.226898E-01
-5.216982E-01
-5.225980E-01
-5.217051E-01
-5.217918E-01
-5.211463E-01
-5.209017E-01
-5.197487E-01
-5.189725E-01
-5.169226E-01
-5.161313E-01
-5.130633E-01
-5.121617E-01
-5.087018E-01
-5.165838E-01
-5.161302E-01
-5.176316E-01
-5.172747E-01
-5.172542E-01
-5.173661E-01
-5.166337E-01
-5.157679E-01
-5.157098E-01
-5.142209E-01
-5.129092E-01
-5.152403E-01
-5.148834E-01
-5.137340E-01
-5.129076E-01
-5.112495E-01
-5.100274E-01
-5.102000E-01
-5.084193E-01
-5.049965E-01
-5.061351E-01
-5.075277E-01
-5.111377E-01
-5.134934E-01
-5.148605E-01
-5.144436E-01
-5.150012E-01
-5.170611E-01
-5.172077E-01
-5.184204E-01
-5.190145E-01
-5.202778E-01
-5.203788E-01
-5.207540E-01
-5.197716E-01
-5.201918E-01
-5.183019E-01
-5.181693E-01
-5.164628E-01
-5.160594E-01
-5.133872E-01
-5.126312E-01
-5.102194E-01
-5.087018E-01
-5.062842E-01
-5.144766E-01
-5.145425E-01
-5.149413E-01
-5.142489E-01
-5.141501E-01
-5.136667E-01
-5.133703E-01
-5.120381E-01
-5.123976E-01
-5.113062E-01
-5.096188E-01
-5.130446E-01
-5.130161E-01
-5.106173E-01
-5.101944E-01
-5.077897E-01
-5.070955E-01
-5.078935E-01
-5.082763E-01
-5.051749E-01
-5.041227E-01
-5.015804E-01
-5.039178E-01
-5.084193E-01
-5.095243E-01
-5.102000E-01
-5.129092E-01
-5.111645E-01
-5.142209E-01
-5.157098E-01
-5.157679E-01
-5.173661E-01
-5.166337E-01
-5.172542E-01
-5.172747E-01
-5.176316E-01
-5.161302E-01
-5.165838E-01
-5.152403E-01
-5.148834E-01
-5.137340E-01
-5.129076E-01
-5.112495E-01
-5.100274E-01
-5.075277E-01
-5.062842E-01
-5.027106E-01
-5.113264E-01
-5.112566E-01
-5.119271E-01
-5.128286E-01
-5.115914E-01
-5.116673E-01
-5.120516E-01
-5.109913E-01
-5.101657E-01
-5.080064E-01
-5.067040E-01
-5.093188E-01
-5.093250E-01
-5.075342E-01
-5.067346E-01
-5.050841E-01
-5.036777E-01
-5.041247E-01
-5.048345E-01
-5.013798E-01
-5.006472E-01
-4.988620E-01
-5.015186E-01
-5.051749E-01
-5.078935E-01
-5.061351E-01
-5.082763E-01
-5.096188E-01
-5.086490E-01
-5.113062E-01
-5.123976E-01
-5.120381E-01
-5.136667E-01
-5.133703E-01
-5.141501E-01