# vtk DataFile Version 2.0
Grille
ASCII
DATASET POLYDATA
POINTS 481 float
0.000000E+00 8.750000E-01 -8.516453E-01
6.250000E-02 8.750000E-01 -8.384453E-01
1.250000E-01 8.750000E-01 -7.879545E-01
1.250000E-01 9.375000E-01 -8.384453E-01
1.250000E-01 1.000000E+00 -8.516453E-01
6.250000E-02 1.000000E+00 -9.076854E-01
0.000000E+00 1.000000E+00 -9.225197E-01
0.000000E+00 9.375000E-01 -9.076854E-01
3.750000E-02 9.125000E-01 -8.854001E-01
8.125000E-02 9.187500E-01 -8.654818E-01
8.750000E-02 9.625000E-01 -8.854001E-01
4.375000E-02 9.562500E-01 -9.090489E-01
1.875000E-01 8.750000E-01 -7.107875E-01
2.500000E-01 8.750000E-01 -6.031590E-01
2.500000E-01 9.375000E-01 -6.417117E-01
2.500000E-01 1.000000E+00 -6.505810E-01
1.875000E-01 1.000000E+00 -7.698027E-01
1.625000E-01 9.125000E-01 -7.786606E-01
2.062500E-01 9.187500E-01 -7.122589E-01
2.125000E-01 9.625000E-01 -7.216060E-01
1.687500E-01 9.562500E-01 -7.927603E-01
0.000000E+00 7.500000E-01 -6.505810E-01
6.250000E-02 7.500000E-01 -6.417117E-01
1.250000E-01 7.500000E-01 -6.031590E-01
1.250000E-01 8.125000E-01 -7.107875E-01
0.000000E+00 8.125000E-01 -7.698027E-01
3.750000E-02 7.875000E-01 -7.216060E-01
8.125000E-02 7.937500E-01 -7.122589E-01
8.750000E-02 8.375000E-01 -7.786606E-01
4.375000E-02 8.312500E-01 -7.927603E-01
1.875000E-01 7.500000E-01 -5.439946E-01
2.500000E-01 7.500000E-01 -4.617945E-01
2.500000E-01 8.125000E-01 -5.439946E-01
1.625000E-01 7.875000E-01 -6.345863E-01
2.062500E-01 7.937500E-01 -5.862748E-01
2.125000E-01 8.375000E-01 -6.345863E-01
1.687500E-01 8.312500E-01 -6.914550E-01
3.125000E-01 8.750000E-01 -4.749188E-01
3.750000E-01 8.750000E-01 -3.265380E-01
3.750000E-01 9.375000E-01 -3.472833E-01
3.750000E-01 1.000000E+00 -3.504715E-01
3.125000E-01 1.000000E+00 -5.147246E-01
2.875000E-01 9.125000E-01 -5.533771E-01
3.312500E-01 9.187500E-01 -4.506010E-01
3.375000E-01 9.625000E-01 -4.479540E-01
2.937500E-01 9.562500E-01 -5.557812E-01
4.375000E-01 8.750000E-01 -1.667479E-01
5.000000E-01 8.750000E-01 -2.046056E-04
5.000000E-01 9.375000E-01 1.582083E-05
5.000000E-01 1.000000E+00 2.993998E-03
4.375000E-01 1.000000E+00 -1.812843E-01
4.125000E-01 9.125000E-01 -2.438469E-01
4.562500E-01 9.187500E-01 -1.203432E-01
4.625000E-01 9.625000E-01 -1.061050E-01
4.187500E-01 9.562500E-01 -2.341895E-01
3.125000E-01 7.500000E-01 -3.634592E-01
3.750000E-01 7.500000E-01 -2.501260E-01
3.750000E-01 8.125000E-01 -2.943834E-01
2.875000E-01 7.875000E-01 -4.509566E-01
3.312500E-01 7.937500E-01 -3.710356E-01
3.375000E-01 8.375000E-01 -3.939020E-01
2.937500E-01 8.312500E-01 -4.848819E-01
4.375000E-01 7.500000E-01 -1.275904E-01
5.000000E-01 7.500000E-01 -3.780618E-04
5.000000E-01 8.125000E-01 4.505390E-05
4.125000E-01 7.875000E-01 -1.986728E-01
4.562500E-01 7.937500E-01 -9.930969E-02
4.625000E-01 8.375000E-01 -9.324968E-02
4.187500E-01 8.312500E-01 -2.044899E-01
0.000000E+00 6.250000E-01 -3.504715E-01
6.250000E-02 6.250000E-01 -3.472833E-01
1.250000E-01 6.250000E-01 -3.265380E-01
1.250000E-01 6.875000E-01 -4.749188E-01
0.000000E+00 6.875000E-01 -5.147246E-01
3.750000E-02 6.625000E-01 -4.479540E-01
8.125000E-02 6.687500E-01 -4.506010E-01
8.750000E-02 7.125000E-01 -5.533771E-01
4.375000E-02 7.062500E-01 -5.557812E-01
1.875000E-01 6.250000E-01 -2.943834E-01
2.500000E-01 6.250000E-01 -2.501260E-01
2.500000E-01 6.875000E-01 -3.634592E-01
1.625000E-01 6.625000E-01 -3.939020E-01
2.062500E-01 6.687500E-01 -3.710356E-01
2.125000E-01 7.125000E-01 -4.509566E-01
1.687500E-01 7.062500E-01 -4.848819E-01
0.000000E+00 5.000000E-01 2.993998E-03
6.250000E-02 5.000000E-01 1.582083E-05
1.250000E-01 5.000000E-01 -2.046056E-04
1.250000E-01 5.625000E-01 -1.667479E-01
0.000000E+00 5.625000E-01 -1.812843E-01
3.750000E-02 5.375000E-01 -1.061050E-01
8.125000E-02 5.437500E-01 -1.203432E-01
8.750000E-02 5.875000E-01 -2.438469E-01
4.375000E-02 5.812500E-01 -2.341895E-01
1.875000E-01 5.000000E-01 4.505390E-05
2.500000E-01 5.000000E-01 -3.780618E-04
2.500000E-01 5.625000E-01 -1.275904E-01
1.625000E-01 5.375000E-01 -9.324968E-02
2.062500E-01 5.437500E-01 -9.930969E-02
2.125000E-01 5.875000E-01 -1.986728E-01
1.687500E-01 5.812500E-01 -2.044899E-01
3.125000E-01 6.250000E-01 -1.966662E-01
3.750000E-01 6.250000E-01 -1.356345E-01
3.750000E-01 6.875000E-01 -1.966662E-01
2.875000E-01 6.625000E-01 -2.798820E-01
3.312500E-01 6.687500E-01 -2.349835E-01
3.375000E-01 7.125000E-01 -2.798820E-01
2.937500E-01 7.062500E-01 -3.401637E-01
4.375000E-01 6.250000E-01 -6.900837E-02
5.000000E-01 6.250000E-01 -4.939616E-04
5.000000E-01 6.875000E-01 6.742793E-05
4.125000E-01 6.625000E-01 -1.232525E-01
4.562500E-01 6.687500E-01 -6.315719E-02
4.625000E-01 7.125000E-01 -6.619796E-02
4.187500E-01 7.062500E-01 -1.436587E-01
3.125000E-01 5.000000E-01 6.742793E-05
3.750000E-01 5.000000E-01 -4.939616E-04
3.750000E-01 5.625000E-01 -6.900837E-02
2.875000E-01 5.375000E-01 -6.619796E-02
3.312500E-01 5.437500E-01 -6.315719E-02
3.375000E-01 5.875000E-01 -1.232525E-01
2.937500E-01 5.812500E-01 -1.436587E-01
4.375000E-01 5.000000E-01 7.953667E-05
5.000000E-01 5.000000E-01 -5.346602E-04
5.000000E-01 5.625000E-01 7.953667E-05
4.125000E-01 5.375000E-01 -2.906820E-02
4.562500E-01 5.437500E-01 -1.738957E-02
4.625000E-01 5.875000E-01 -2.906820E-02
4.187500E-01 5.812500E-01 -6.095665E-02
5.625000E-01 8.750000E-01 1.668088E-01
6.250000E-01 8.750000E-01 3.261600E-01
6.250000E-01 9.375000E-01 3.473126E-01
6.250000E-01 1.000000E+00 3.560037E-01
5.625000E-01 1.000000E+00 1.797548E-01
5.375000E-01 9.125000E-01 1.028068E-01
5.812500E-01 9.187500E-01 2.282358E-01
5.875000E-01 9.625000E-01 2.518975E-01
5.437500E-01 9.562500E-01 1.230555E-01
6.875000E-01 8.750000E-01 4.749704E-01
7.500000E-01 8.750000E-01 6.028697E-01
7.500000E-01 9.375000E-01 6.417341E-01
7.500000E-01 1.000000E+00 6.548151E-01
6.875000E-01 1.000000E+00 5.134280E-01
6.625000E-01 9.125000E-01 4.338090E-01
7.062500E-01 9.187500E-01 5.420679E-01
7.125000E-01 9.625000E-01 5.715509E-01
6.687500E-01 9.562500E-01 4.615664E-01
5.625000E-01 7.500000E-01 1.277029E-01
6.250000E-01 7.500000E-01 2.494274E-01
6.250000E-01 8.125000E-01 2.944666E-01
5.375000E-01 7.875000E-01 8.385714E-02
5.812500E-01 7.937500E-01 1.875353E-01
5.875000E-01 8.375000E-01 2.215991E-01
5.437500E-01 8.312500E-01 1.070338E-01
6.875000E-01 7.500000E-01 3.635545E-01
7.500000E-01 7.500000E-01 4.612599E-01
7.500000E-01 8.125000E-01 5.440583E-01
6.625000E-01 7.875000E-01 3.536206E-01
7.062500E-01 7.937500E-01 4.458297E-01
7.125000E-01 8.375000E-01 5.027114E-01
6.687500E-01 8.312500E-01 4.022626E-01
8.125000E-01 8.750000E-01 7.108220E-01
8.750000E-01 8.750000E-01 7.877979E-01
8.750000E-01 9.375000E-01 8.384575E-01
8.750000E-01 1.000000E+00 8.539368E-01
8.125000E-01 1.000000E+00 7.689363E-01
7.875000E-01 9.125000E-01 6.987678E-01
8.312500E-01 9.187500E-01 7.733751E-01
8.375000E-01 9.625000E-01 8.041909E-01
7.937500E-01 9.562500E-01 7.298080E-01
9.375000E-01 8.750000E-01 8.384575E-01
1.000000E+00 8.750000E-01 8.539368E-01
1.000000E+00 9.375000E-01 9.073811E-01
1.000000E+00 1.000000E+00 9.235891E-01
9.375000E-01 1.000000E+00 9.073811E-01
9.125000E-01 9.125000E-01 8.573455E-01
9.562500E-01 9.187500E-01 8.869430E-01
9.625000E-01 9.625000E-01 9.144001E-01
9.187500E-01 9.562500E-01 8.869430E-01
8.125000E-01 7.500000E-01 5.440583E-01
8.750000E-01 7.500000E-01 6.028697E-01
8.750000E-01 8.125000E-01 7.108220E-01
7.875000E-01 7.875000E-01 5.695485E-01
8.312500E-01 7.937500E-01 6.362505E-01
8.375000E-01 8.375000E-01 7.072904E-01
7.937500E-01 8.312500E-01 6.362505E-01
9.375000E-01 7.500000E-01 6.417341E-01
1.000000E+00 7.500000E-01 6.548151E-01
1.000000E+00 8.125000E-01 7.689363E-01
9.125000E-01 7.875000E-01 6.987678E-01
9.562500E-01 7.937500E-01 7.298080E-01
9.625000E-01 8.375000E-01 8.041909E-01
9.187500E-01 8.312500E-01 7.733751E-01
5.625000E-01 6.250000E-01 6.915534E-02
6.250000E-01 6.250000E-01 1.347218E-01
6.250000E-01 6.875000E-01 1.967908E-01
5.375000E-01 6.625000E-01 5.214103E-02
5.812500E-01 6.687500E-01 1.182842E-01
5.875000E-01 7.125000E-01 1.575641E-01
5.437500E-01 7.062500E-01 7.471712E-02
6.875000E-01 6.250000E-01 1.967908E-01
7.500000E-01 6.250000E-01 2.494274E-01
7.500000E-01 6.875000E-01 3.635545E-01
6.625000E-01 6.625000E-01 2.195966E-01
7.062500E-01 6.687500E-01 2.817179E-01
7.125000E-01 7.125000E-01 3.573385E-01
6.687500E-01 7.062500E-01 2.817179E-01
5.625000E-01 5.000000E-01 7.953667E-05
6.250000E-01 5.000000E-01 -4.939616E-04
6.250000E-01 5.625000E-01 6.915534E-02
5.375000E-01 5.375000E-01 1.248693E-02
5.812500E-01 5.437500E-01 3.102544E-02
5.875000E-01 5.875000E-01 6.954150E-02
5.437500E-01 5.812500E-01 3.102544E-02
6.875000E-01 5.000000E-01 6.742793E-05
7.500000E-01 5.000000E-01 -3.780618E-04
7.500000E-01 5.625000E-01 1.277029E-01
6.625000E-01 5.375000E-01 5.214103E-02
7.062500E-01 5.437500E-01 7.471712E-02
7.125000E-01 5.875000E-01 1.575641E-01
6.687500E-01 5.812500E-01 1.182842E-01
8.125000E-01 6.250000E-01 2.944666E-01
8.750000E-01 6.250000E-01 3.261600E-01
8.750000E-01 6.875000E-01 4.749704E-01
7.875000E-01 6.625000E-01 3.536206E-01
8.312500E-01 6.687500E-01 4.022626E-01
8.375000E-01 7.125000E-01 5.027114E-01
7.937500E-01 7.062500E-01 4.458297E-01
9.375000E-01 6.250000E-01 3.473126E-01
1.000000E+00 6.250000E-01 3.560037E-01
1.000000E+00 6.875000E-01 5.134280E-01
9.125000E-01 6.625000E-01 4.338090E-01
9.562500E-01 6.687500E-01 4.615664E-01
9.625000E-01 7.125000E-01 5.715509E-01
9.187500E-01 7.062500E-01 5.420679E-01
8.125000E-01 5.000000E-01 4.505390E-05
8.750000E-01 5.000000E-01 -2.046056E-04
8.750000E-01 5.625000E-01 1.668088E-01
7.875000E-01 5.375000E-01 8.385714E-02
8.312500E-01 5.437500E-01 1.070338E-01
8.375000E-01 5.875000E-01 2.215991E-01
7.937500E-01 5.812500E-01 1.875353E-01
9.375000E-01 5.000000E-01 1.582083E-05
1.000000E+00 5.000000E-01 2.993998E-03
1.000000E+00 5.625000E-01 1.797548E-01
9.125000E-01 5.375000E-01 1.028068E-01
9.562500E-01 5.437500E-01 1.230555E-01
9.625000E-01 5.875000E-01 2.518975E-01
9.187500E-01 5.812500E-01 2.282358E-01
0.000000E+00 3.750000E-01 3.560037E-01
6.250000E-02 3.750000E-01 3.473126E-01
[...]
CELL_DATA 896
SCALARS sol float 1
LOOKUP_TABLE default
-8.671624E-01
-8.701546E-01
-8.904310E-01
-8.361282E-01
-8.936391E-01
-8.395258E-01
-9.073450E-01
-8.128596E-01
-8.086574E-01
-8.936391E-01
-8.395258E-01
-8.092542E-01
-9.225197E-01
-7.668439E-01
-7.668717E-01
-9.073450E-01
-8.701546E-01
-8.092542E-01
-7.662594E-01
-9.225197E-01
-7.482460E-01
-7.217129E-01
-7.399387E-01
-8.904310E-01
-8.671624E-01
-7.662594E-01
-8.086574E-01
-7.367786E-01
-6.981251E-01
-6.787181E-01
-6.827754E-01
-8.361282E-01
-7.399387E-01
-7.367786E-01
-7.668717E-01
-6.834320E-01
-6.595068E-01
-6.224438E-01
-6.558992E-01
-8.128596E-01
-6.827754E-01
-6.834320E-01
-7.482460E-01
-6.421367E-01
-6.048758E-01
-5.794490E-01
-5.868591E-01
-5.997238E-01
-7.668439E-01
-6.595068E-01
-6.558992E-01
-6.421367E-01
-6.981251E-01
-5.936466E-01
-5.487004E-01
-5.095977E-01
-5.233549E-01
-5.485297E-01
-7.217129E-01
-6.048758E-01
-5.997238E-01
-5.936466E-01
-6.787181E-01
-5.364135E-01
-4.970738E-01
-5.252611E-01
-4.889392E-01
-4.431206E-01
-4.959738E-01
-5.487004E-01
-5.868591E-01
-5.485297E-01
-5.364135E-01
-6.224438E-01
-4.902307E-01
-4.220787E-01
-4.541602E-01
-4.198124E-01
-3.869452E-01
-4.382679E-01
-4.970738E-01
-5.252611E-01
-5.233549E-01
-4.959738E-01
-4.902307E-01
-5.794490E-01
-4.294269E-01
-3.790839E-01
-4.026894E-01
-4.196423E-01
-3.139979E-01
-3.987908E-01
-4.220787E-01
-4.541602E-01
-4.889392E-01
-4.382679E-01
-4.294269E-01
-5.095977E-01
-3.911070E-01
-3.084105E-01
-3.418856E-01
-3.569772E-01
-2.578225E-01
-2.757168E-01
-3.316561E-01
-3.790839E-01
-4.026894E-01
-4.196423E-01
-4.198124E-01
-3.987908E-01
-3.911070E-01
-4.431206E-01
-3.295809E-01
-2.476067E-01
-2.767722E-01
-3.083875E-01
-1.747700E-01
-2.001622E-01
-3.009524E-01
-3.084105E-01
-3.418856E-01
-3.569772E-01
-3.869452E-01
-3.316561E-01
-3.295809E-01
-2.864586E-01
-2.337774E-01
-1.785339E-01
-2.330080E-01
-2.499291E-01
-1.551959E-01
-9.706714E-02
-2.447770E-01
-2.476067E-01
-2.757168E-01
-2.767722E-01
-3.083875E-01
-3.139979E-01
-3.009524E-01
-2.864586E-01
-2.397955E-01
-1.557467E-01
-9.712424E-02
-1.676768E-01
-1.937537E-01
-7.758703E-02
-3.626334E-02
-1.974104E-01
-1.785339E-01
-2.337774E-01
-2.001622E-01
-2.330080E-01
-2.499291E-01
-2.578225E-01
-2.447770E-01
-2.397955E-01
-1.907419E-01
-1.332611E-01
-8.817384E-02
-4.094886E-02
-1.432227E-01
-1.741418E-01
4.225134E-02
-1.548259E-01
-9.712424E-02
-1.557467E-01
-1.551959E-01
-1.676768E-01
-1.937537E-01
-1.747700E-01
-1.974104E-01
-1.907419E-01
-1.533982E-01
-6.596132E-02
-3.199846E-02
3.500746E-02
-7.640707E-02
-1.130123E-01
1.030551E-01
7.740082E-02
-1.096642E-01
-4.094886E-02
-8.817384E-02
-1.332611E-01
-7.758703E-02
-1.432227E-01
-1.741418E-01
-9.706714E-02
-1.548259E-01
-1.533982E-01
-1.104034E-01
-3.341229E-02
3.712143E-02
9.118285E-02
-6.585687E-02
-9.103854E-02
1.866649E-01
1.535035E-01
-8.610715E-02
3.500746E-02
-3.199846E-02
-6.596132E-02
-3.626334E-02
-7.640707E-02
-1.130123E-01
-1.096642E-01
-1.104034E-01
-8.799472E-02
2.842201E-02
9.329682E-02
6.543103E-02
1.671862E-01
-2.286210E-02
-4.429360E-02
2.021747E-01
2.637639E-01
-4.405761E-02
9.118285E-02
7.740082E-02
3.712143E-02
-3.341229E-02
4.225134E-02
-6.585687E-02
-9.103854E-02
-8.610715E-02
-8.799472E-02
-5.307288E-02
7.141679E-02
1.663779E-01
1.284416E-01
2.426164E-01
2.634012E-02
-2.078900E-02
2.764503E-01
3.199393E-01
-3.351380E-02
1.671862E-01
9.329682E-02
1.535035E-01
6.543103E-02
2.842201E-02
1.030551E-01
-2.286210E-02
-4.429360E-02
-4.405761E-02
-5.307288E-02
-3.495619E-02
6.933490E-02
1.341498E-01
1.734079E-01
2.397654E-01
3.034202E-01
4.349997E-02
1.750957E-02
3.920682E-01
-1.024519E-02
2.426164E-01
1.663779E-01
2.021747E-01
1.284416E-01
7.141679E-02
1.866649E-01
2.634012E-02
-2.078900E-02
-3.351380E-02
-3.495619E-02
-1.588257E-02
1.207613E-01
1.904742E-01
2.350966E-01
2.827602E-01
3.730959E-01
8.382558E-02
4.077818E-02
4.482436E-01
4.187349E-01
1.154877E-02
3.034202E-01
2.397654E-01
1.734079E-01
2.764503E-01
1.341498E-01
6.933490E-02
2.637639E-01
4.349997E-02
1.750957E-02
-1.024519E-02
-1.588257E-02
-5.000775E-03
1.182413E-01
1.792648E-01
2.466496E-01
3.453636E-01
4.160907E-01
8.069028E-02
3.481738E-02
5.196818E-01
4.837996E-01
1.494643E-02
3.730959E-01
2.827602E-01
2.350966E-01
3.199393E-01
1.904742E-01
1.207613E-01
8.382558E-02
4.077818E-02
1.154877E-02
-5.000775E-03
3.931455E-03
1.579517E-01
2.025334E-01
3.024461E-01
4.061674E-01
3.539088E-01
4.874536E-01
1.093341E-01
5.675998E-02
5.287659E-01
5.844393E-01
2.644792E-02
4.160907E-01
4.187349E-01
3.453636E-01
2.466496E-01
3.920682E-01
1.792648E-01
1.182413E-01
8.069028E-02
3.481738E-02
1.494643E-02
3.931455E-03
3.931455E-03
1.523288E-01
2.460806E-01
3.257147E-01
4.631729E-01
4.050059E-01
5.454210E-01
9.147275E-02
4.507358E-02
5.884005E-01
6.274340E-01
1.494643E-02
4.874536E-01
4.061674E-01
4.837996E-01
3.539088E-01
3.024461E-01
4.482436E-01
2.025334E-01
1.579517E-01
1.093341E-01
5.675998E-02
2.644792E-02
3.931455E-03
-5.000775E-03
1.857516E-01
3.022560E-01
2.352033E-01
3.910991E-01
4.536771E-01
5.312025E-01
6.015964E-01
9.147275E-02
5.675998E-02
6.821962E-01
1.154877E-02
5.454210E-01
4.631729E-01
5.287659E-01
4.050059E-01
3.257147E-01
5.196818E-01
2.460806E-01
1.523288E-01
9.147275E-02
4.507358E-02
1.494643E-02
-5.000775E-03
-1.588257E-02
1.857516E-01
3.361502E-01
2.645537E-01
4.283576E-01
5.003632E-01
5.544711E-01
6.543838E-01
1.093341E-01
3.481738E-02
7.251910E-01
6.963204E-01
-1.024519E-02
6.015964E-01
5.312025E-01
4.536771E-01
5.884005E-01
3.910991E-01
3.022560E-01
5.844393E-01
2.352033E-01
1.857516E-01
9.147275E-02
5.675998E-02
1.154877E-02
-1.588257E-02
-3.495619E-02
1.523288E-01
2.352033E-01
3.095200E-01
3.970950E-01
4.891614E-01
6.010274E-01
6.776524E-01
8.069028E-02
4.077818E-02
7.735818E-01
7.404416E-01
-3.351380E-02
6.543838E-01
5.544711E-01
5.003632E-01
6.274340E-01
4.283576E-01
3.361502E-01
2.645537E-01
1.857516E-01
1.093341E-01
3.481738E-02
-1.024519E-02
-3.495619E-02
-5.307288E-02
1.579517E-01
2.460806E-01
3.361502E-01
3.970950E-01
5.304255E-01
6.572027E-01
5.885072E-01
7.335107E-01
8.382558E-02
1.750957E-02
7.748574E-01
8.161391E-01
-4.405761E-02
6.776524E-01
6.963204E-01
6.010274E-01
4.891614E-01
6.821962E-01
3.970950E-01
3.095200E-01
2.352033E-01
1.523288E-01
8.069028E-02
4.077818E-02
-3.351380E-02
-5.307288E-02
-8.799472E-02
1.182413E-01
2.025334E-01
3.022560E-01
4.283576E-01
5.304255E-01
6.894541E-01
6.199117E-01
7.651901E-01
4.349997E-02
-2.078900E-02
8.107721E-01
8.394077E-01
-8.610715E-02
7.335107E-01
6.572027E-01
7.404416E-01
5.885072E-01
5.304255E-01
7.251910E-01
3.970950E-01
3.361502E-01
2.460806E-01
1.579517E-01
8.382558E-02
1.750957E-02
-4.405761E-02
-8.799472E-02
-1.104034E-01
1.207613E-01
1.792648E-01
3.257147E-01
4.891614E-01
3.910991E-01
5.885072E-01
6.648780E-01
7.417689E-01
8.081849E-01
2.634012E-02
-4.429360E-02
8.684660E-01
-1.096642E-01
7.651901E-01
6.894541E-01
7.748574E-01
6.199117E-01
5.304255E-01
7.735818E-01
4.283576E-01
3.022560E-01
2.025334E-01
1.182413E-01
4.349997E-02
-2.078900E-02
-8.610715E-02
-1.104034E-01
-1.533982E-01
6.933490E-02
1.904742E-01
3.024461E-01
5.003632E-01
4.050059E-01
6.010274E-01
6.894541E-01
7.417689E-01
8.360478E-01
-2.286210E-02
-9.103854E-02
8.917346E-01
8.678974E-01
-1.548259E-01
8.081849E-01
7.417689E-01
6.648780E-01
8.107721E-01
5.885072E-01
4.891614E-01
8.161391E-01
3.910991E-01
3.257147E-01
1.792648E-01
1.207613E-01
2.634012E-02
-4.429360E-02
-1.096642E-01
-1.533982E-01
-1.907419E-01
7.141679E-02
2.466496E-01
1.341498E-01
3.539088E-01
4.536771E-01
5.544711E-01
6.572027E-01
7.651901E-01
8.360478E-01
-6.585687E-02
-1.130123E-01
9.097110E-01
8.843581E-01
-1.974104E-01
8.360478E-01
7.417689E-01
6.894541E-01
8.394077E-01
6.010274E-01
5.003632E-01
4.050059E-01
3.024461E-01
1.904742E-01
6.933490E-02
-2.286210E-02
-9.103854E-02
-1.548259E-01
-1.907419E-01
-2.397955E-01
2.842201E-02
2.350966E-01
1.284416E-01
3.453636E-01
4.631729E-01
5.312025E-01
6.776524E-01
8.081849E-01
7.335107E-01
8.678974E-01
-7.640707E-02
-1.741418E-01
9.029838E-01
9.235891E-01
-2.447770E-01
8.360478E-01
8.678974E-01
7.651901E-01
6.572027E-01
8.684660E-01
5.544711E-01
4.536771E-01
3.539088E-01
2.466496E-01
1.341498E-01
7.141679E-02
-6.585687E-02
-1.130123E-01
-1.974104E-01
-2.397955E-01
-2.864586E-01
6.543103E-02
-3.341229E-02
1.734079E-01
2.827602E-01
4.061674E-01
5.454210E-01
6.543838E-01
8.107721E-01
7.404416E-01
8.684660E-01
-1.432227E-01
-1.937537E-01
9.097110E-01
9.235891E-01
-3.009524E-01
8.678974E-01
8.081849E-01
8.843581E-01
7.335107E-01
6.776524E-01
8.917346E-01
5.312025E-01
4.631729E-01
3.453636E-01
2.350966E-01
1.284416E-01
2.842201E-02
-7.640707E-02
-1.741418E-01
-2.447770E-01
-2.864586E-01
-3.295809E-01
3.712143E-02
-6.596132E-02
1.663779E-01
2.397654E-01
4.160907E-01
6.015964E-01
4.874536E-01
6.963204E-01
7.748574E-01
8.394077E-01
8.917346E-01
-1.676768E-01
-2.499291E-01
-3.316561E-01
8.684660E-01
8.107721E-01
9.029838E-01
7.404416E-01
6.543838E-01
9.097110E-01
5.454210E-01
4.061674E-01
2.827602E-01
1.734079E-01
6.543103E-02
-3.341229E-02
-1.432227E-01
-1.937537E-01
-3.009524E-01
-3.295809E-01
-3.911070E-01
9.329682E-02
-3.199846E-02
-1.332611E-01
2.426164E-01
3.730959E-01
5.884005E-01
4.837996E-01
6.821962E-01
7.735818E-01
8.161391E-01
-2.330080E-01
-3.083875E-01
-3.987908E-01
8.917346E-01
8.394077E-01
7.748574E-01
9.097110E-01
6.963204E-01
6.015964E-01
9.235891E-01
4.874536E-01
4.160907E-01
2.397654E-01
1.663779E-01
3.712143E-02
-6.596132E-02
-1.676768E-01
-2.499291E-01
-3.316561E-01
-3.911070E-01
-4.294269E-01
9.118285E-02
-8.817384E-02
-1.557467E-01
3.034202E-01
1.671862E-01
4.187349E-01
5.287659E-01
6.274340E-01
7.251910E-01
-2.767722E-01
-3.569772E-01
-4.382679E-01
8.161391E-01
7.735818E-01
9.235891E-01
6.821962E-01
5.884005E-01
4.837996E-01
3.730959E-01
2.426164E-01
9.329682E-02
-3.199846E-02
-1.332611E-01
-2.330080E-01
-3.083875E-01
-3.987908E-01
-4.294269E-01
-4.902307E-01
3.500746E-02
-9.712424E-02
-2.337774E-01
2.764503E-01
1.535035E-01
3.920682E-01
5.196818E-01
5.844393E-01
-3.418856E-01
-4.196423E-01
-4.959738E-01
7.251910E-01
6.274340E-01
5.287659E-01
4.187349E-01
3.034202E-01
1.671862E-01
9.118285E-02
-8.817384E-02
-1.557467E-01
-2.767722E-01
-3.569772E-01
-4.382679E-01
-4.902307E-01
-5.364135E-01
7.740082E-02
-4.094886E-02
-1.785339E-01
-2.476067E-01
2.021747E-01
3.199393E-01
4.482436E-01
-4.026894E-01
-4.541602E-01
-5.485297E-01
5.844393E-01
5.196818E-01
3.920682E-01
2.764503E-01
1.535035E-01
3.500746E-02
-9.712424E-02
-2.337774E-01
-3.418856E-01
-4.196423E-01
-4.959738E-01
-5.364135E-01
-5.936466E-01
4.225134E-02
-7.758703E-02
-2.001622E-01
-3.084105E-01
1.866649E-01
2.637639E-01
-4.220787E-01
-5.252611E-01
-5.997238E-01
4.482436E-01
3.199393E-01
2.021747E-01
7.740082E-02
-4.094886E-02
-1.785339E-01
-2.476067E-01
-4.026894E-01
-4.541602E-01
-5.485297E-01
-5.936466E-01
-6.421367E-01
1.030551E-01
-3.626334E-02
-1.551959E-01
-2.757168E-01
-3.790839E-01
-4.970738E-01
-5.487004E-01
-6.558992E-01
2.637639E-01
1.866649E-01
4.225134E-02
-7.758703E-02
-2.001622E-01
-3.084105E-01
-4.220787E-01
-5.252611E-01
-5.997238E-01
-6.421367E-01
-6.834320E-01
-9.706714E-02
-1.747700E-01
-3.139979E-01
-4.198124E-01
-5.233549E-01
-6.048758E-01
-6.827754E-01
1.030551E-01
-3.626334E-02
-1.551959E-01
-2.757168E-01
-3.790839E-01
-4.970738E-01
-5.487004E-01
-6.558992E-01
-6.834320E-01
-7.367786E-01
-2.578225E-01
-3.869452E-01
-4.889392E-01
-5.868591E-01
-6.595068E-01
-7.399387E-01
-9.706714E-02
-1.747700E-01
-3.139979E-01
-4.198124E-01
-5.233549E-01
-6.048758E-01
-6.827754E-01
-7.367786E-01
-7.662594E-01
-4.431206E-01
-5.095977E-01
-6.224438E-01
-6.981251E-01
-7.668717E-01
-2.578225E-01
-3.869452E-01
-4.889392E-01
-5.868591E-01
-6.595068E-01
-7.399387E-01
-7.662594E-01
-8.092542E-01
-5.794490E-01
-6.787181E-01
-7.482460E-01
-8.086574E-01
-4.431206E-01
-5.095977E-01
-6.224438E-01
-6.981251E-01
-7.668717E-01
-8.092542E-01
-8.395258E-01
-7.217129E-01
-7.668439E-01
-8.361282E-01
-5.794490E-01
-6.787181E-01
-7.482460E-01
-8.086574E-01
-8.395258E-01
-8.701546E-01
-8.128596E-01
-8.671624E-01
-7.217129E-01
-7.668439E-01
-8.361282E-01
-8.701546E-01
-8.936391E-01
-8.904310E-01
-8.128596E-01
-8.671624E-01
-8.936391E-01
-9.073450E-01
-8.904310E-01
-9.073450E-01
-9.225197E-01
-9.225197E-01
