# vtk DataFile Version 2.0
Grille
ASCII
DATASET POLYDATA
POINTS 481 float
0.000000E+00 8.750000E-01 -8.032058E-01
6.250000E-02 8.750000E-01 -7.907566E-01
1.250000E-01 8.750000E-01 -7.431375E-01
1.250000E-01 9.375000E-01 -7.907566E-01
1.250000E-01 1.000000E+00 -8.032058E-01
6.250000E-02 1.000000E+00 -8.560584E-01
0.000000E+00 1.000000E+00 -8.700490E-01
0.000000E+00 9.375000E-01 -8.560584E-01
3.750000E-02 9.125000E-01 -8.350407E-01
8.125000E-02 9.187500E-01 -8.162553E-01
8.750000E-02 9.625000E-01 -8.350407E-01
4.375000E-02 9.562500E-01 -8.573443E-01
1.875000E-01 8.750000E-01 -6.703596E-01
2.500000E-01 8.750000E-01 -5.688528E-01
2.500000E-01 9.375000E-01 -6.052127E-01
2.500000E-01 1.000000E+00 -6.135775E-01
1.875000E-01 1.000000E+00 -7.260182E-01
1.625000E-01 9.125000E-01 -7.343723E-01
2.062500E-01 9.187500E-01 -6.717473E-01
2.125000E-01 9.625000E-01 -6.805628E-01
1.687500E-01 9.562500E-01 -7.476700E-01
0.000000E+00 7.500000E-01 -6.135775E-01
6.250000E-02 7.500000E-01 -6.052127E-01
1.250000E-01 7.500000E-01 -5.688528E-01
1.250000E-01 8.125000E-01 -6.703596E-01
0.000000E+00 8.125000E-01 -7.260182E-01
3.750000E-02 7.875000E-01 -6.805628E-01
8.125000E-02 7.937500E-01 -6.717473E-01
8.750000E-02 8.375000E-01 -7.343723E-01
4.375000E-02 8.312500E-01 -7.476700E-01
1.875000E-01 7.500000E-01 -5.130534E-01
2.500000E-01 7.500000E-01 -4.355288E-01
2.500000E-01 8.125000E-01 -5.130534E-01
1.625000E-01 7.875000E-01 -5.984926E-01
2.062500E-01 7.937500E-01 -5.529289E-01
2.125000E-01 8.375000E-01 -5.984926E-01
1.687500E-01 8.312500E-01 -6.521267E-01
3.125000E-01 8.750000E-01 -4.479065E-01
3.750000E-01 8.750000E-01 -3.079653E-01
3.750000E-01 9.375000E-01 -3.275307E-01
3.750000E-01 1.000000E+00 -3.305375E-01
3.125000E-01 1.000000E+00 -4.854483E-01
2.875000E-01 9.125000E-01 -5.219023E-01
3.312500E-01 9.187500E-01 -4.249719E-01
3.375000E-01 9.625000E-01 -4.224754E-01
2.937500E-01 9.562500E-01 -5.241697E-01
4.375000E-01 8.750000E-01 -1.572637E-01
5.000000E-01 8.750000E-01 -1.929681E-04
5.000000E-01 9.375000E-01 1.492098E-05
5.000000E-01 1.000000E+00 2.823706E-03
4.375000E-01 1.000000E+00 -1.709733E-01
4.125000E-01 9.125000E-01 -2.299775E-01
4.562500E-01 9.187500E-01 -1.134984E-01
4.625000E-01 9.625000E-01 -1.000700E-01
4.187500E-01 9.562500E-01 -2.208693E-01
3.125000E-01 7.500000E-01 -3.427865E-01
3.750000E-01 7.500000E-01 -2.358994E-01
3.750000E-01 8.125000E-01 -2.776395E-01
2.875000E-01 7.875000E-01 -4.253072E-01
3.312500E-01 7.937500E-01 -3.499320E-01
3.375000E-01 8.375000E-01 -3.714978E-01
2.937500E-01 8.312500E-01 -4.573030E-01
4.375000E-01 7.500000E-01 -1.203333E-01
5.000000E-01 7.500000E-01 -3.565586E-04
5.000000E-01 8.125000E-01 4.249134E-05
4.125000E-01 7.875000E-01 -1.873727E-01
4.562500E-01 7.937500E-01 -9.366119E-02
4.625000E-01 8.375000E-01 -8.794586E-02
4.187500E-01 8.312500E-01 -1.928590E-01
0.000000E+00 6.250000E-01 -3.305375E-01
6.250000E-02 6.250000E-01 -3.275307E-01
1.250000E-01 6.250000E-01 -3.079653E-01
1.250000E-01 6.875000E-01 -4.479065E-01
0.000000E+00 6.875000E-01 -4.854483E-01
3.750000E-02 6.625000E-01 -4.224754E-01
8.125000E-02 6.687500E-01 -4.249719E-01
8.750000E-02 7.125000E-01 -5.219023E-01
4.375000E-02 7.062500E-01 -5.241697E-01
1.875000E-01 6.250000E-01 -2.776395E-01
2.500000E-01 6.250000E-01 -2.358994E-01
2.500000E-01 6.875000E-01 -3.427865E-01
1.625000E-01 6.625000E-01 -3.714978E-01
2.062500E-01 6.687500E-01 -3.499320E-01
2.125000E-01 7.125000E-01 -4.253072E-01
1.687500E-01 7.062500E-01 -4.573030E-01
0.000000E+00 5.000000E-01 2.823706E-03
6.250000E-02 5.000000E-01 1.492098E-05
1.250000E-01 5.000000E-01 -1.929681E-04
1.250000E-01 5.625000E-01 -1.572637E-01
0.000000E+00 5.625000E-01 -1.709733E-01
3.750000E-02 5.375000E-01 -1.000700E-01
8.125000E-02 5.437500E-01 -1.134984E-01
8.750000E-02 5.875000E-01 -2.299775E-01
4.375000E-02 5.812500E-01 -2.208693E-01
1.875000E-01 5.000000E-01 4.249134E-05
2.500000E-01 5.000000E-01 -3.565586E-04
2.500000E-01 5.625000E-01 -1.203333E-01
1.625000E-01 5.375000E-01 -8.794586E-02
2.062500E-01 5.437500E-01 -9.366119E-02
2.125000E-01 5.875000E-01 -1.873727E-01
1.687500E-01 5.812500E-01 -1.928590E-01
3.125000E-01 6.250000E-01 -1.854803E-01
3.750000E-01 6.250000E-01 -1.279200E-01
3.750000E-01 6.875000E-01 -1.854803E-01
2.875000E-01 6.625000E-01 -2.639630E-01
3.312500E-01 6.687500E-01 -2.216182E-01
3.375000E-01 7.125000E-01 -2.639630E-01
2.937500E-01 7.062500E-01 -3.208160E-01
4.375000E-01 6.250000E-01 -6.508334E-02
5.000000E-01 6.250000E-01 -4.658662E-04
5.000000E-01 6.875000E-01 6.359279E-05
4.125000E-01 6.625000E-01 -1.162422E-01
4.562500E-01 6.687500E-01 -5.956496E-02
4.625000E-01 7.125000E-01 -6.243278E-02
4.187500E-01 7.062500E-01 -1.354877E-01
3.125000E-01 5.000000E-01 6.359279E-05
3.750000E-01 5.000000E-01 -4.658662E-04
3.750000E-01 5.625000E-01 -6.508334E-02
2.875000E-01 5.375000E-01 -6.243278E-02
3.312500E-01 5.437500E-01 -5.956496E-02
3.375000E-01 5.875000E-01 -1.162422E-01
2.937500E-01 5.812500E-01 -1.354877E-01
4.375000E-01 5.000000E-01 7.501281E-05
5.000000E-01 5.000000E-01 -5.042500E-04
5.000000E-01 5.625000E-01 7.501281E-05
4.125000E-01 5.375000E-01 -2.741487E-02
4.562500E-01 5.437500E-01 -1.640050E-02
4.625000E-01 5.875000E-01 -2.741487E-02
4.187500E-01 5.812500E-01 -5.748958E-02
5.625000E-01 8.750000E-01 1.573211E-01
6.250000E-01 8.750000E-01 3.076088E-01
6.250000E-01 9.375000E-01 3.275582E-01
6.250000E-01 1.000000E+00 3.357551E-01
5.625000E-01 1.000000E+00 1.695308E-01
5.375000E-01 9.125000E-01 9.695935E-02
5.812500E-01 9.187500E-01 2.152543E-01
5.875000E-01 9.625000E-01 2.375702E-01
5.437500E-01 9.562500E-01 1.160564E-01
6.875000E-01 8.750000E-01 4.479552E-01
7.500000E-01 8.750000E-01 5.685799E-01
7.500000E-01 9.375000E-01 6.052338E-01
7.500000E-01 1.000000E+00 6.175708E-01
6.875000E-01 1.000000E+00 4.842254E-01
6.625000E-01 9.125000E-01 4.091350E-01
7.062500E-01 9.187500E-01 5.112364E-01
7.125000E-01 9.625000E-01 5.390425E-01
6.687500E-01 9.562500E-01 4.353136E-01
5.625000E-01 7.500000E-01 1.204394E-01
6.250000E-01 7.500000E-01 2.352406E-01
6.250000E-01 8.125000E-01 2.777180E-01
5.375000E-01 7.875000E-01 7.908754E-02
5.812500E-01 7.937500E-01 1.768687E-01
5.875000E-01 8.375000E-01 2.089950E-01
5.437500E-01 8.312500E-01 1.009460E-01
6.875000E-01 7.500000E-01 3.428764E-01
7.500000E-01 7.500000E-01 4.350245E-01
7.500000E-01 8.125000E-01 5.131135E-01
6.625000E-01 7.875000E-01 3.335075E-01
7.062500E-01 7.937500E-01 4.204719E-01
7.125000E-01 8.375000E-01 4.741183E-01
6.687500E-01 8.312500E-01 3.793828E-01
8.125000E-01 8.750000E-01 6.703921E-01
8.750000E-01 8.750000E-01 7.429898E-01
8.750000E-01 9.375000E-01 7.907680E-01
8.750000E-01 1.000000E+00 8.053669E-01
8.125000E-01 1.000000E+00 7.252011E-01
7.875000E-01 9.125000E-01 6.590235E-01
8.312500E-01 9.187500E-01 7.293874E-01
8.375000E-01 9.625000E-01 7.584504E-01
7.937500E-01 9.562500E-01 6.882983E-01
9.375000E-01 8.750000E-01 7.907680E-01
1.000000E+00 8.750000E-01 8.053669E-01
1.000000E+00 9.375000E-01 8.557715E-01
1.000000E+00 1.000000E+00 8.710575E-01
9.375000E-01 1.000000E+00 8.557715E-01
9.125000E-01 9.125000E-01 8.085817E-01
9.562500E-01 9.187500E-01 8.364958E-01
9.625000E-01 9.625000E-01 8.623912E-01
9.187500E-01 9.562500E-01 8.364958E-01
8.125000E-01 7.500000E-01 5.131135E-01
8.750000E-01 7.500000E-01 5.685799E-01
8.750000E-01 8.125000E-01 6.703921E-01
7.875000E-01 7.875000E-01 5.371539E-01
8.312500E-01 7.937500E-01 6.000621E-01
8.375000E-01 8.375000E-01 6.670614E-01
7.937500E-01 8.312500E-01 6.000621E-01
9.375000E-01 7.500000E-01 6.052338E-01
1.000000E+00 7.500000E-01 6.175708E-01
1.000000E+00 8.125000E-01 7.252011E-01
9.125000E-01 7.875000E-01 6.590235E-01
9.562500E-01 7.937500E-01 6.882983E-01
9.625000E-01 8.375000E-01 7.584504E-01
9.187500E-01 8.312500E-01 7.293874E-01
5.625000E-01 6.250000E-01 6.522195E-02
6.250000E-01 6.250000E-01 1.270592E-01
6.250000E-01 6.875000E-01 1.855978E-01
5.375000E-01 6.625000E-01 4.917537E-02
5.812500E-01 6.687500E-01 1.115565E-01
5.875000E-01 7.125000E-01 1.486023E-01
5.437500E-01 7.062500E-01 7.046739E-02
6.875000E-01 6.250000E-01 1.855978E-01
7.500000E-01 6.250000E-01 2.352406E-01
7.500000E-01 6.875000E-01 3.428764E-01
6.625000E-01 6.625000E-01 2.071065E-01
7.062500E-01 6.687500E-01 2.656944E-01
7.125000E-01 7.125000E-01 3.370140E-01
6.687500E-01 7.062500E-01 2.656944E-01
5.625000E-01 5.000000E-01 7.501281E-05
6.250000E-01 5.000000E-01 -4.658662E-04
6.250000E-01 5.625000E-01 6.522195E-02
5.375000E-01 5.375000E-01 1.177670E-02
5.812500E-01 5.437500E-01 2.926079E-02
5.875000E-01 5.875000E-01 6.558615E-02
5.437500E-01 5.812500E-01 2.926079E-02
6.875000E-01 5.000000E-01 6.359279E-05
7.500000E-01 5.000000E-01 -3.565586E-04
7.500000E-01 5.625000E-01 1.204394E-01
6.625000E-01 5.375000E-01 4.917537E-02
7.062500E-01 5.437500E-01 7.046739E-02
7.125000E-01 5.875000E-01 1.486023E-01
6.687500E-01 5.812500E-01 1.115565E-01
8.125000E-01 6.250000E-01 2.777180E-01
8.750000E-01 6.250000E-01 3.076088E-01
8.750000E-01 6.875000E-01 4.479552E-01
7.875000E-01 6.625000E-01 3.335075E-01
8.312500E-01 6.687500E-01 3.793828E-01
8.375000E-01 7.125000E-01 4.741183E-01
7.937500E-01 7.062500E-01 4.204719E-01
9.375000E-01 6.250000E-01 3.275582E-01
1.000000E+00 6.250000E-01 3.357551E-01
1.000000E+00 6.875000E-01 4.842254E-01
9.125000E-01 6.625000E-01 4.091350E-01
9.562500E-01 6.687500E-01 4.353136E-01
9.625000E-01 7.125000E-01 5.390425E-01
9.187500E-01 7.062500E-01 5.112364E-01
8.125000E-01 5.000000E-01 4.249134E-05
8.750000E-01 5.000000E-01 -1.929681E-04
8.750000E-01 5.625000E-01 1.573211E-01
7.875000E-01 5.375000E-01 7.908754E-02
8.312500E-01 5.437500E-01 1.009460E-01
8.375000E-01 5.875000E-01 2.089950E-01
7.937500E-01 5.812500E-01 1.768687E-01
9.375000E-01 5.000000E-01 1.492098E-05
1.000000E+00 5.000000E-01 2.823706E-03
1.000000E+00 5.625000E-01 1.695308E-01
9.125000E-01 5.375000E-01 9.695935E-02
9.562500E-01 5.437500E-01 1.160564E-01
9.625000E-01 5.875000E-01 2.375702E-01
9.187500E-01 5.812500E-01 2.152543E-01
0.000000E+00 3.750000E-01 3.357551E-01
6.250000E-02 3.750000E-01 3.275582E-01
[...]
CELL_DATA 896
SCALARS sol float 1
LOOKUP_TABLE default
-8.178403E-01
-8.206623E-01
-8.397854E-01
-7.885712E-01
-8.428111E-01
-7.917756E-01
-8.557373E-01
-7.666261E-01
-7.626629E-01
-8.428111E-01
-7.917756E-01
-7.632258E-01
-8.700490E-01
-7.232276E-01
-7.232538E-01
-8.557373E-01
-8.206623E-01
-7.632258E-01
-7.226764E-01
-8.700490E-01
-7.056876E-01
-6.806636E-01
-6.978527E-01
-8.397854E-01
-8.178403E-01
-7.226764E-01
-7.626629E-01
-6.948724E-01
-6.584174E-01
-6.401143E-01
-6.439408E-01
-7.885712E-01
-6.978527E-01
-6.948724E-01
-7.232538E-01
-6.445600E-01
-6.219956E-01
-5.870406E-01
-6.185932E-01
-7.666261E-01
-6.439408E-01
-6.445600E-01
-7.056876E-01
-6.056135E-01
-5.704719E-01
-5.464913E-01
-5.534800E-01
-5.656129E-01
-7.232276E-01
-6.219956E-01
-6.185932E-01
-6.056135E-01
-6.584174E-01
-5.598814E-01
-5.174916E-01
-4.806130E-01
-4.935878E-01
-5.173307E-01
-6.806636E-01
-5.704719E-01
-5.656129E-01
-5.598814E-01
-6.401143E-01
-5.059036E-01
-4.688014E-01
-4.953855E-01
-4.611295E-01
-4.179169E-01
-4.677640E-01
-5.174916E-01
-5.534800E-01
-5.173307E-01
-5.059036E-01
-5.870406E-01
-4.623475E-01
-3.980718E-01
-4.283287E-01
-3.959345E-01
-3.649367E-01
-4.133403E-01
-4.688014E-01
-4.953855E-01
-4.935878E-01
-4.677640E-01
-4.623475E-01
-5.464913E-01
-4.050021E-01
-3.575225E-01
-3.797854E-01
-3.957740E-01
-2.961384E-01
-3.761085E-01
-3.980718E-01
-4.283287E-01
-4.611295E-01
-4.133403E-01
-4.050021E-01
-4.806130E-01
-3.688618E-01
-2.908689E-01
-3.224400E-01
-3.366732E-01
-2.431582E-01
-2.600347E-01
-3.127923E-01
-3.575225E-01
-3.797854E-01
-3.957740E-01
-3.959345E-01
-3.761085E-01
-3.688618E-01
-4.179169E-01
-3.108351E-01
-2.335234E-01
-2.610300E-01
-2.908471E-01
-1.648295E-01
-1.887774E-01
-2.838350E-01
-2.908689E-01
-3.224400E-01
-3.366732E-01
-3.649367E-01
-3.127923E-01
-3.108351E-01
-2.701655E-01
-2.204807E-01
-1.683793E-01
-2.197551E-01
-2.357137E-01
-1.463687E-01
-9.154619E-02
-2.308547E-01
-2.335234E-01
-2.600347E-01
-2.610300E-01
-2.908471E-01
-2.961384E-01
-2.838350E-01
-2.701655E-01
-2.261565E-01
-1.468882E-01
-9.160005E-02
-1.581398E-01
-1.827334E-01
-7.317406E-02
-3.420077E-02
-1.861822E-01
-1.683793E-01
-2.204807E-01
-1.887774E-01
-2.197551E-01
-2.357137E-01
-2.431582E-01
-2.308547E-01
-2.261565E-01
-1.798930E-01
-1.256815E-01
-8.315872E-02
-3.861979E-02
-1.350765E-01
-1.642370E-01
3.984818E-02
-1.460198E-01
-9.160005E-02
-1.468882E-01
-1.463687E-01
-1.581398E-01
-1.827334E-01
-1.648295E-01
-1.861822E-01
-1.798930E-01
-1.446732E-01
-6.220960E-02
-3.017846E-02
3.301632E-02
-7.206121E-02
-1.065845E-01
9.719360E-02
7.299844E-02
-1.034268E-01
-3.861979E-02
-8.315872E-02
-1.256815E-01
-7.317406E-02
-1.350765E-01
-1.642370E-01
-9.154619E-02
-1.460198E-01
-1.446732E-01
-1.041239E-01
-3.151188E-02
3.501005E-02
8.599658E-02
-6.211109E-02
-8.586049E-02
1.760479E-01
1.447726E-01
-8.120958E-02
3.301632E-02
-3.017846E-02
-6.220960E-02
-3.420077E-02
-7.206121E-02
-1.065845E-01
-1.034268E-01
-1.041239E-01
-8.298979E-02
2.680544E-02
8.799031E-02
6.170947E-02
1.576770E-01
-2.156175E-02
-4.177428E-02
1.906754E-01
2.487616E-01
-4.155171E-02
8.599658E-02
7.299844E-02
3.501005E-02
-3.151188E-02
3.984818E-02
-6.211109E-02
-8.586049E-02
-8.120958E-02
-8.298979E-02
-5.005423E-02
6.735477E-02
1.569147E-01
1.211361E-01
2.288170E-01
2.484196E-02
-1.960657E-02
2.607264E-01
3.017419E-01
-3.160761E-02
1.576770E-01
8.799031E-02
1.447726E-01
6.170947E-02
2.680544E-02
9.719360E-02
-2.156175E-02
-4.177428E-02
-4.155171E-02
-5.005423E-02
-3.296797E-02
6.539130E-02
1.265196E-01
1.635448E-01
2.261281E-01
2.861624E-01
4.102579E-02
1.651367E-02
3.697683E-01
-9.662467E-03
2.288170E-01
1.569147E-01
1.906754E-01
1.211361E-01
6.735477E-02
1.760479E-01
2.484196E-02
-1.960657E-02
-3.160761E-02
-3.296797E-02
-1.497921E-02
1.138927E-01
1.796405E-01
2.217249E-01
2.666774E-01
3.518751E-01
7.905778E-02
3.845881E-02
4.227485E-01
3.949183E-01
1.089191E-02
2.861624E-01
2.261281E-01
1.635448E-01
2.607264E-01
1.265196E-01
6.539130E-02
2.487616E-01
4.102579E-02
1.651367E-02
-9.662467E-03
-1.497921E-02
-4.716343E-03
1.115160E-01
1.690686E-01
2.326208E-01
3.257202E-01
3.924244E-01
7.610081E-02
3.283705E-02
4.901235E-01
4.562822E-01
1.409631E-02
3.518751E-01
2.666774E-01
2.217249E-01
3.017419E-01
1.796405E-01
1.138927E-01
7.905778E-02
3.845881E-02
1.089191E-02
-4.716343E-03
3.707843E-03
1.489677E-01
1.910138E-01
2.852437E-01
3.830656E-01
3.337793E-01
4.597284E-01
1.031154E-01
5.353161E-02
4.986910E-01
5.511977E-01
2.494362E-02
3.924244E-01
3.949183E-01
3.257202E-01
2.326208E-01
3.697683E-01
1.690686E-01
1.115160E-01
7.610081E-02
3.283705E-02
1.409631E-02
3.707843E-03
3.707843E-03
1.436647E-01
2.320841E-01
3.071888E-01
4.368287E-01
3.819701E-01
5.143987E-01
8.627000E-02
4.250990E-02
5.549337E-01
5.917471E-01
1.409631E-02
4.597284E-01
3.830656E-01
4.562822E-01
3.337793E-01
2.852437E-01
4.227485E-01
1.910138E-01
1.489677E-01
1.031154E-01
5.353161E-02
2.494362E-02
3.707843E-03
-4.716343E-03
1.751865E-01
2.850644E-01
2.218255E-01
3.688544E-01
4.278730E-01
5.009890E-01
5.673790E-01
8.627000E-02
5.353161E-02
6.433945E-01
1.089191E-02
5.143987E-01
4.368287E-01
4.986910E-01
3.819701E-01
3.071888E-01
4.901235E-01
2.320841E-01
1.436647E-01
8.627000E-02
4.250990E-02
1.409631E-02
-4.716343E-03
-1.497921E-02
1.751865E-01
3.170308E-01
2.495065E-01
4.039936E-01
4.719038E-01
5.229341E-01
6.171640E-01
1.031154E-01
3.283705E-02
6.839438E-01
6.567154E-01
-9.662467E-03
5.673790E-01
5.009890E-01
4.278730E-01
5.549337E-01
3.688544E-01
2.850644E-01
5.511977E-01
2.218255E-01
1.751865E-01
8.627000E-02
5.353161E-02
1.089191E-02
-1.497921E-02
-3.296797E-02
1.436647E-01
2.218255E-01
2.919152E-01
3.745092E-01
4.613390E-01
5.668424E-01
6.391092E-01
7.610081E-02
3.845881E-02
7.295823E-01
6.983271E-01
-3.160761E-02
6.171640E-01
5.229341E-01
4.719038E-01
5.917471E-01
4.039936E-01
3.170308E-01
2.495065E-01
1.751865E-01
1.031154E-01
3.283705E-02
-9.662467E-03
-3.296797E-02
-5.005423E-02
1.489677E-01
2.320841E-01
3.170308E-01
3.745092E-01
5.002562E-01
6.198226E-01
5.550343E-01
6.917904E-01
7.905778E-02
1.651367E-02
7.307853E-01
7.697190E-01
-4.155171E-02
6.391092E-01
6.567154E-01
5.668424E-01
4.613390E-01
6.433945E-01
3.745092E-01
2.919152E-01
2.218255E-01
1.436647E-01
7.610081E-02
3.845881E-02
-3.160761E-02
-5.005423E-02
-8.298979E-02
1.115160E-01
1.910138E-01
2.850644E-01
4.039936E-01
5.002562E-01
6.502396E-01
5.846526E-01
7.216679E-01
4.102579E-02
-1.960657E-02
7.646573E-01
7.916641E-01
-8.120958E-02
6.917904E-01
6.198226E-01
6.983271E-01
5.550343E-01
5.002562E-01
6.839438E-01
3.745092E-01
3.170308E-01
2.320841E-01
1.489677E-01
7.905778E-02
1.651367E-02
-4.155171E-02
-8.298979E-02
-1.041239E-01
1.138927E-01
1.690686E-01
3.071888E-01
4.613390E-01
3.688544E-01
5.550343E-01
6.270614E-01
6.995788E-01
7.622173E-01
2.484196E-02
-4.177428E-02
8.190697E-01
-1.034268E-01
7.216679E-01
6.502396E-01
7.307853E-01
5.846526E-01
5.002562E-01
7.295823E-01
4.039936E-01
2.850644E-01
1.910138E-01
1.115160E-01
4.102579E-02
-1.960657E-02
-8.120958E-02
-1.041239E-01
-1.446732E-01
6.539130E-02
1.796405E-01
2.852437E-01
4.719038E-01
3.819701E-01
5.668424E-01
6.502396E-01
6.995788E-01
7.884954E-01
-2.156175E-02
-8.586049E-02
8.410149E-01
8.185335E-01
-1.460198E-01
7.622173E-01
6.995788E-01
6.270614E-01
7.646573E-01
5.550343E-01
4.613390E-01
7.697190E-01
3.688544E-01
3.071888E-01
1.690686E-01
1.138927E-01
2.484196E-02
-4.177428E-02
-1.034268E-01
-1.446732E-01
-1.798930E-01
6.735477E-02
2.326208E-01
1.265196E-01
3.337793E-01
4.278730E-01
5.229341E-01
6.198226E-01
7.216679E-01
7.884954E-01
-6.211109E-02
-1.065845E-01
8.579688E-01
8.340579E-01
-1.861822E-01
7.884954E-01
6.995788E-01
6.502396E-01
7.916641E-01
5.668424E-01
4.719038E-01
3.819701E-01
2.852437E-01
1.796405E-01
6.539130E-02
-2.156175E-02
-8.586049E-02
-1.460198E-01
-1.798930E-01
-2.261565E-01
2.680544E-02
2.217249E-01
1.211361E-01
3.257202E-01
4.368287E-01
5.009890E-01
6.391092E-01
7.622173E-01
6.917904E-01
8.185335E-01
-7.206121E-02
-1.642370E-01
8.516242E-01
8.710575E-01
-2.308547E-01
7.884954E-01
8.185335E-01
7.216679E-01
6.198226E-01
8.190697E-01
5.229341E-01
4.278730E-01
3.337793E-01
2.326208E-01
1.265196E-01
6.735477E-02
-6.211109E-02
-1.065845E-01
-1.861822E-01
-2.261565E-01
-2.701655E-01
6.170947E-02
-3.151188E-02
1.635448E-01
2.666774E-01
3.830656E-01
5.143987E-01
6.171640E-01
7.646573E-01
6.983271E-01
8.190697E-01
-1.350765E-01
-1.827334E-01
8.579688E-01
8.710575E-01
-2.838350E-01
8.185335E-01
7.622173E-01
8.340579E-01
6.917904E-01
6.391092E-01
8.410149E-01
5.009890E-01
4.368287E-01
3.257202E-01
2.217249E-01
1.211361E-01
2.680544E-02
-7.206121E-02
-1.642370E-01
-2.308547E-01
-2.701655E-01
-3.108351E-01
3.501005E-02
-6.220960E-02
1.569147E-01
2.261281E-01
3.924244E-01
5.673790E-01
4.597284E-01
6.567154E-01
7.307853E-01
7.916641E-01
8.410149E-01
-1.581398E-01
-2.357137E-01
-3.127923E-01
8.190697E-01
7.646573E-01
8.516242E-01
6.983271E-01
6.171640E-01
8.579688E-01
5.143987E-01
3.830656E-01
2.666774E-01
1.635448E-01
6.170947E-02
-3.151188E-02
-1.350765E-01
-1.827334E-01
-2.838350E-01
-3.108351E-01
-3.688618E-01
8.799031E-02
-3.017846E-02
-1.256815E-01
2.288170E-01
3.518751E-01
5.549337E-01
4.562822E-01
6.433945E-01
7.295823E-01
7.697190E-01
-2.197551E-01
-2.908471E-01
-3.761085E-01
8.410149E-01
7.916641E-01
7.307853E-01
8.579688E-01
6.567154E-01
5.673790E-01
8.710575E-01
4.597284E-01
3.924244E-01
2.261281E-01
1.569147E-01
3.501005E-02
-6.220960E-02
-1.581398E-01
-2.357137E-01
-3.127923E-01
-3.688618E-01
-4.050021E-01
8.599658E-02
-8.315872E-02
-1.468882E-01
2.861624E-01
1.576770E-01
3.949183E-01
4.986910E-01
5.917471E-01
6.839438E-01
-2.610300E-01
-3.366732E-01
-4.133403E-01
7.697190E-01
7.295823E-01
8.710575E-01
6.433945E-01
5.549337E-01
4.562822E-01
3.518751E-01
2.288170E-01
8.799031E-02
-3.017846E-02
-1.256815E-01
-2.197551E-01
-2.908471E-01
-3.761085E-01
-4.050021E-01
-4.623475E-01
3.301632E-02
-9.160005E-02
-2.204807E-01
2.607264E-01
1.447726E-01
3.697683E-01
4.901235E-01
5.511977E-01
-3.224400E-01
-3.957740E-01
-4.677640E-01
6.839438E-01
5.917471E-01
4.986910E-01
3.949183E-01
2.861624E-01
1.576770E-01
8.599658E-02
-8.315872E-02
-1.468882E-01
-2.610300E-01
-3.366732E-01
-4.133403E-01
-4.623475E-01
-5.059036E-01
7.299844E-02
-3.861979E-02
-1.683793E-01
-2.335234E-01
1.906754E-01
3.017419E-01
4.227485E-01
-3.797854E-01
-4.283287E-01
-5.173307E-01
5.511977E-01
4.901235E-01
3.697683E-01
2.607264E-01
1.447726E-01
3.301632E-02
-9.160005E-02
-2.204807E-01
-3.224400E-01
-3.957740E-01
-4.677640E-01
-5.059036E-01
-5.598814E-01
3.984818E-02
-7.317406E-02
-1.887774E-01
-2.908689E-01
1.760479E-01
2.487616E-01
-3.980718E-01
-4.953855E-01
-5.656129E-01
4.227485E-01
3.017419E-01
1.906754E-01
7.299844E-02
-3.861979E-02
-1.683793E-01
-2.335234E-01
-3.797854E-01
-4.283287E-01
-5.173307E-01
-5.598814E-01
-6.056135E-01
9.719360E-02
-3.420077E-02
-1.463687E-01
-2.600347E-01
-3.575225E-01
-4.688014E-01
-5.174916E-01
-6.185932E-01
2.487616E-01
1.760479E-01
3.984818E-02
-7.317406E-02
-1.887774E-01
-2.908689E-01
-3.980718E-01
-4.953855E-01
-5.656129E-01
-6.056135E-01
-6.445600E-01
-9.154619E-02
-1.648295E-01
-2.961384E-01
-3.959345E-01
-4.935878E-01
-5.704719E-01
-6.439408E-01
9.719360E-02
-3.420077E-02
-1.463687E-01
-2.600347E-01
-3.575225E-01
-4.688014E-01
-5.174916E-01
-6.185932E-01
-6.445600E-01
-6.948724E-01
-2.431582E-01
-3.649367E-01
-4.611295E-01
-5.534800E-01
-6.219956E-01
-6.978527E-01
-9.154619E-02
-1.648295E-01
-2.961384E-01
-3.959345E-01
-4.935878E-01
-5.704719E-01
-6.439408E-01
-6.948724E-01
-7.226764E-01
-4.179169E-01
-4.806130E-01
-5.870406E-01
-6.584174E-01
-7.232538E-01
-2.431582E-01
-3.649367E-01
-4.611295E-01
-5.534800E-01
-6.219956E-01
-6.978527E-01
-7.226764E-01
-7.632258E-01
-5.464913E-01
-6.401143E-01
-7.056876E-01
-7.626629E-01
-4.179169E-01
-4.806130E-01
-5.870406E-01
-6.584174E-01
-7.232538E-01
-7.632258E-01
-7.917756E-01
-6.806636E-01
-7.232276E-01
-7.885712E-01
-5.464913E-01
-6.401143E-01
-7.056876E-01
-7.626629E-01
-7.917756E-01
-8.206623E-01
-7.666261E-01
-8.178403E-01
-6.806636E-01
-7.232276E-01
-7.885712E-01
-8.206623E-01
-8.428111E-01
-8.397854E-01
-7.666261E-01
-8.178403E-01
-8.428111E-01
-8.557373E-01
-8.397854E-01
-8.557373E-01
-8.700490E-01
-8.700490E-01
