# vtk DataFile Version 2.0
Grille
ASCII
DATASET POLYDATA
POINTS 28929 float
0.000000E+00 9.843750E-01 -8.586070E-01
7.812500E-03 9.843750E-01 -8.584008E-01
1.562500E-02 9.843750E-01 -8.575931E-01
1.562500E-02 9.921875E-01 -8.584008E-01
1.562500E-02 1.000000E+00 -8.586070E-01
7.812500E-03 1.000000E+00 -8.594351E-01
0.000000E+00 1.000000E+00 -8.596477E-01
0.000000E+00 9.921875E-01 -8.594351E-01
4.687500E-03 9.890625E-01 -8.591094E-01
1.015625E-02 9.898438E-01 -8.588065E-01
1.093750E-02 9.953125E-01 -8.591094E-01
5.468750E-03 9.945312E-01 -8.594552E-01
2.343750E-02 9.843750E-01 -8.563390E-01
3.125000E-02 9.843750E-01 -8.545019E-01
3.125000E-02 9.921875E-01 -8.553067E-01
3.125000E-02 1.000000E+00 -8.554950E-01
2.343750E-02 1.000000E+00 -8.573752E-01
2.031250E-02 9.890625E-01 -8.574707E-01
2.578125E-02 9.898438E-01 -8.564195E-01
2.656250E-02 9.953125E-01 -8.566210E-01
2.109375E-02 9.945312E-01 -8.577153E-01
0.000000E+00 9.687500E-01 -8.554950E-01
7.812500E-03 9.687500E-01 -8.553067E-01
1.562500E-02 9.687500E-01 -8.545019E-01
1.562500E-02 9.765625E-01 -8.563390E-01
0.000000E+00 9.765625E-01 -8.573752E-01
4.687500E-03 9.734375E-01 -8.566210E-01
1.015625E-02 9.742188E-01 -8.564195E-01
1.093750E-02 9.796875E-01 -8.574707E-01
5.468750E-03 9.789062E-01 -8.577153E-01
2.343750E-02 9.687500E-01 -8.532522E-01
3.125000E-02 9.687500E-01 -8.514216E-01
3.125000E-02 9.765625E-01 -8.532522E-01
2.031250E-02 9.734375E-01 -8.549869E-01
2.578125E-02 9.742188E-01 -8.540388E-01
2.656250E-02 9.796875E-01 -8.549869E-01
2.109375E-02 9.789062E-01 -8.559789E-01
3.906250E-02 9.843750E-01 -8.522198E-01
4.687500E-02 9.843750E-01 -8.493574E-01
4.687500E-02 9.921875E-01 -8.501575E-01
4.687500E-02 1.000000E+00 -8.503273E-01
3.906250E-02 1.000000E+00 -8.532556E-01
3.593750E-02 9.890625E-01 -8.537721E-01
4.140625E-02 9.898438E-01 -8.519748E-01
4.218750E-02 9.953125E-01 -8.520745E-01
3.671875E-02 9.945312E-01 -8.539150E-01
5.468750E-02 9.843750E-01 -8.460522E-01
6.250000E-02 9.843750E-01 -8.421707E-01
6.250000E-02 9.921875E-01 -8.429643E-01
6.250000E-02 1.000000E+00 -8.431152E-01
5.468750E-02 1.000000E+00 -8.470852E-01
5.156250E-02 9.890625E-01 -8.480216E-01
5.703125E-02 9.898438E-01 -8.454822E-01
5.781250E-02 9.953125E-01 -8.454799E-01
5.234375E-02 9.945312E-01 -8.480624E-01
3.906250E-02 9.687500E-01 -8.491475E-01
4.687500E-02 9.687500E-01 -8.462952E-01
4.687500E-02 9.765625E-01 -8.481150E-01
3.593750E-02 9.734375E-01 -8.512988E-01
4.140625E-02 9.742188E-01 -8.496062E-01
4.218750E-02 9.796875E-01 -8.504489E-01
3.671875E-02 9.789062E-01 -8.521861E-01
5.468750E-02 9.687500E-01 -8.430015E-01
6.250000E-02 9.687500E-01 -8.391339E-01
6.250000E-02 9.765625E-01 -8.409387E-01
5.156250E-02 9.734375E-01 -8.455646E-01
5.703125E-02 9.742188E-01 -8.431312E-01
5.781250E-02 9.796875E-01 -8.438664E-01
5.234375E-02 9.789062E-01 -8.463451E-01
0.000000E+00 9.531250E-01 -8.503273E-01
7.812500E-03 9.531250E-01 -8.501575E-01
1.562500E-02 9.531250E-01 -8.493574E-01
1.562500E-02 9.609375E-01 -8.522198E-01
0.000000E+00 9.609375E-01 -8.532556E-01
4.687500E-03 9.578125E-01 -8.520745E-01
1.015625E-02 9.585938E-01 -8.519748E-01
1.093750E-02 9.640625E-01 -8.537721E-01
5.468750E-03 9.632812E-01 -8.539150E-01
2.343750E-02 9.531250E-01 -8.481150E-01
3.125000E-02 9.531250E-01 -8.462952E-01
3.125000E-02 9.609375E-01 -8.491475E-01
2.031250E-02 9.578125E-01 -8.504489E-01
2.578125E-02 9.585938E-01 -8.496062E-01
2.656250E-02 9.640625E-01 -8.512988E-01
2.109375E-02 9.632812E-01 -8.521861E-01
0.000000E+00 9.375000E-01 -8.431152E-01
7.812500E-03 9.375000E-01 -8.429643E-01
1.562500E-02 9.375000E-01 -8.421707E-01
1.562500E-02 9.453125E-01 -8.460522E-01
0.000000E+00 9.453125E-01 -8.470852E-01
4.687500E-03 9.421875E-01 -8.454799E-01
1.015625E-02 9.429688E-01 -8.454822E-01
1.093750E-02 9.484375E-01 -8.480216E-01
5.468750E-03 9.476562E-01 -8.480624E-01
2.343750E-02 9.375000E-01 -8.409387E-01
3.125000E-02 9.375000E-01 -8.391339E-01
3.125000E-02 9.453125E-01 -8.430015E-01
2.031250E-02 9.421875E-01 -8.438664E-01
2.578125E-02 9.429688E-01 -8.431312E-01
2.656250E-02 9.484375E-01 -8.455646E-01
2.109375E-02 9.476562E-01 -8.463451E-01
3.906250E-02 9.531250E-01 -8.440344E-01
4.687500E-02 9.531250E-01 -8.411989E-01
4.687500E-02 9.609375E-01 -8.440344E-01
3.593750E-02 9.578125E-01 -8.467798E-01
4.140625E-02 9.585938E-01 -8.451958E-01
4.218750E-02 9.640625E-01 -8.467798E-01
3.671875E-02 9.632812E-01 -8.484095E-01
5.468750E-02 9.531250E-01 -8.379245E-01
6.250000E-02 9.531250E-01 -8.340798E-01
6.250000E-02 9.609375E-01 -8.368918E-01
5.156250E-02 9.578125E-01 -8.410752E-01
5.703125E-02 9.585938E-01 -8.387535E-01
5.781250E-02 9.640625E-01 -8.402250E-01
5.234375E-02 9.632812E-01 -8.425936E-01
3.906250E-02 9.375000E-01 -8.368918E-01
4.687500E-02 9.375000E-01 -8.340798E-01
4.687500E-02 9.453125E-01 -8.379245E-01
3.593750E-02 9.421875E-01 -8.402250E-01
4.140625E-02 9.429688E-01 -8.387535E-01
4.218750E-02 9.484375E-01 -8.410752E-01
3.671875E-02 9.476562E-01 -8.425936E-01
5.468750E-02 9.375000E-01 -8.308324E-01
6.250000E-02 9.375000E-01 -8.270196E-01
6.250000E-02 9.453125E-01 -8.308324E-01
5.156250E-02 9.421875E-01 -8.345635E-01
5.703125E-02 9.429688E-01 -8.323591E-01
5.781250E-02 9.484375E-01 -8.345635E-01
5.234375E-02 9.476562E-01 -8.368165E-01
7.031250E-02 9.843750E-01 -8.378499E-01
7.812500E-02 9.843750E-01 -8.329580E-01
7.812500E-02 9.921875E-01 -8.337432E-01
7.812500E-02 1.000000E+00 -8.338749E-01
7.031250E-02 1.000000E+00 -8.388777E-01
6.718750E-02 9.890625E-01 -8.402321E-01
7.265625E-02 9.898438E-01 -8.369562E-01
7.343750E-02 9.953125E-01 -8.368517E-01
6.796875E-02 9.945312E-01 -8.401707E-01
8.593750E-02 9.843750E-01 -8.276312E-01
9.375000E-02 9.843750E-01 -8.217399E-01
9.375000E-02 9.921875E-01 -8.225149E-01
9.375000E-02 1.000000E+00 -8.226269E-01
8.593750E-02 1.000000E+00 -8.286513E-01
8.281250E-02 9.890625E-01 -8.304207E-01
8.828125E-02 9.898438E-01 -8.264157E-01
8.906250E-02 9.953125E-01 -8.262092E-01
8.359375E-02 9.945312E-01 -8.302573E-01
7.031250E-02 9.687500E-01 -8.348281E-01
7.812500E-02 9.687500E-01 -8.299537E-01
7.812500E-02 9.765625E-01 -8.317393E-01
6.718750E-02 9.734375E-01 -8.377971E-01
7.265625E-02 9.742188E-01 -8.346282E-01
7.343750E-02 9.796875E-01 -8.352543E-01
6.796875E-02 9.789062E-01 -8.384689E-01
8.593750E-02 9.687500E-01 -8.246454E-01
9.375000E-02 9.687500E-01 -8.187753E-01
9.375000E-02 9.765625E-01 -8.205375E-01
8.281250E-02 9.734375E-01 -8.280135E-01
8.828125E-02 9.742188E-01 -8.241165E-01
8.906250E-02 9.796875E-01 -8.246316E-01
8.359375E-02 9.789062E-01 -8.285751E-01
1.015625E-01 9.843750E-01 -8.154192E-01
1.093750E-01 9.843750E-01 -8.085419E-01
1.093750E-01 9.921875E-01 -8.093048E-01
1.093750E-01 1.000000E+00 -8.093969E-01
1.015625E-01 1.000000E+00 -8.164292E-01
9.843750E-02 9.890625E-01 -8.186097E-01
1.039063E-01 9.898438E-01 -8.138848E-01
1.046875E-01 9.953125E-01 -8.135766E-01
9.921875E-02 9.945312E-01 -8.183446E-01
1.171875E-01 9.843750E-01 -8.012418E-01
1.250000E-01 9.843750E-01 -7.933943E-01
1.250000E-01 9.921875E-01 -7.941433E-01
1.250000E-01 1.000000E+00 -7.942152E-01
1.171875E-01 1.000000E+00 -8.022392E-01
1.140625E-01 9.890625E-01 -8.048260E-01
1.195313E-01 9.898438E-01 -7.993920E-01
1.203125E-01 9.953125E-01 -7.989828E-01
1.148437E-01 9.945312E-01 -8.044598E-01
1.015625E-01 9.687500E-01 -8.124765E-01
1.093750E-01 9.687500E-01 -8.056240E-01
1.093750E-01 9.765625E-01 -8.073586E-01
9.843750E-02 9.734375E-01 -8.162361E-01
1.039063E-01 9.742188E-01 -8.116197E-01
1.046875E-01 9.796875E-01 -8.120226E-01
9.921875E-02 9.789062E-01 -8.166862E-01
1.171875E-01 9.687500E-01 -7.983494E-01
1.250000E-01 9.687500E-01 -7.905302E-01
1.250000E-01 9.765625E-01 -7.922331E-01
1.140625E-01 9.734375E-01 -8.024916E-01
1.195313E-01 9.742188E-01 -7.971665E-01
1.203125E-01 9.796875E-01 -7.974561E-01
1.148437E-01 9.789062E-01 -8.028290E-01
7.031250E-02 9.531250E-01 -8.297991E-01
7.812500E-02 9.531250E-01 -8.249537E-01
7.812500E-02 9.609375E-01 -8.277357E-01
6.718750E-02 9.578125E-01 -8.333479E-01
7.265625E-02 9.585938E-01 -8.302937E-01
7.343750E-02 9.640625E-01 -8.316491E-01
6.796875E-02 9.632812E-01 -8.347514E-01
8.593750E-02 9.531250E-01 -8.196764E-01
9.375000E-02 9.531250E-01 -8.138413E-01
9.375000E-02 9.609375E-01 -8.165866E-01
8.281250E-02 9.578125E-01 -8.236151E-01
8.828125E-02 9.585938E-01 -8.198352E-01
8.906250E-02 9.640625E-01 -8.210713E-01
8.359375E-02 9.632812E-01 -8.249005E-01
7.031250E-02 9.375000E-01 -8.227743E-01
7.812500E-02 9.375000E-01 -8.179692E-01
7.812500E-02 9.453125E-01 -8.217412E-01
6.718750E-02 9.421875E-01 -8.268946E-01
7.265625E-02 9.429688E-01 -8.239621E-01
7.343750E-02 9.484375E-01 -8.260440E-01
6.796875E-02 9.476562E-01 -8.290267E-01
8.593750E-02 9.375000E-01 -8.127355E-01
9.375000E-02 9.375000E-01 -8.069492E-01
9.375000E-02 9.453125E-01 -8.106713E-01
8.281250E-02 9.421875E-01 -8.172356E-01
8.828125E-02 9.429688E-01 -8.135817E-01
8.906250E-02 9.484375E-01 -8.155360E-01
8.359375E-02 9.476562E-01 -8.192417E-01
1.015625E-01 9.531250E-01 -8.075795E-01
1.093750E-01 9.531250E-01 -8.007680E-01
1.093750E-01 9.609375E-01 -8.034701E-01
9.843750E-02 9.578125E-01 -8.118990E-01
1.039063E-01 9.585938E-01 -8.074021E-01
1.046875E-01 9.640625E-01 -8.085156E-01
9.921875E-02 9.632812E-01 -8.130631E-01
1.171875E-01 9.531250E-01 -7.935360E-01
1.250000E-01 9.531250E-01 -7.857638E-01
1.250000E-01 9.609375E-01 -7.884163E-01
1.140625E-01 9.578125E-01 -7.982262E-01
1.195313E-01 9.585938E-01 -7.930228E-01
1.203125E-01 9.640625E-01 -7.940110E-01
1.148437E-01 9.632812E-01 -7.992663E-01
1.015625E-01 9.375000E-01 -8.007391E-01
1.093750E-01 9.375000E-01 -7.939848E-01
1.093750E-01 9.453125E-01 -7.976482E-01
9.843750E-02 9.421875E-01 -8.056084E-01
1.039063E-01 9.429688E-01 -8.012416E-01
1.046875E-01 9.484375E-01 -8.030634E-01
9.921875E-02 9.476562E-01 -8.074839E-01
1.171875E-01 9.375000E-01 -7.868126E-01
1.250000E-01 9.375000E-01 -7.791058E-01
1.250000E-01 9.453125E-01 -7.827018E-01
1.140625E-01 9.421875E-01 -7.920397E-01
1.195313E-01 9.429688E-01 -7.869701E-01
1.203125E-01 9.484375E-01 -7.886549E-01
[...]
CELL_DATA 57344
SCALARS sol float 1
LOOKUP_TABLE default
-8.588396E-01
-8.588838E-01
-8.591836E-01
-8.583744E-01
-8.592313E-01
-8.584092E-01
-8.594343E-01
-8.580302E-01
-8.579549E-01
-8.592313E-01
-8.584092E-01
-8.579456E-01
-8.596477E-01
-8.573357E-01
-8.573052E-01
-8.594343E-01
-8.588838E-01
-8.579456E-01
-8.572581E-01
-8.596477E-01
-8.570299E-01
-8.566381E-01
-8.568554E-01
-8.591836E-01
-8.588396E-01
-8.572581E-01
-8.579549E-01
-8.567594E-01
-8.562357E-01
-8.559509E-01
-8.559002E-01
-8.583744E-01
-8.568554E-01
-8.567594E-01
-8.573052E-01
-8.558599E-01
-8.555561E-01
-8.550393E-01
-8.554037E-01
-8.580302E-01
-8.559002E-01
-8.558599E-01
-8.570299E-01
-8.551085E-01
-8.546468E-01
-8.543516E-01
-8.544145E-01
-8.543747E-01
-8.573357E-01
-8.555561E-01
-8.554037E-01
-8.551085E-01
-8.562357E-01
-8.542135E-01
-8.536172E-01
-8.531776E-01
-8.533195E-01
-8.534303E-01
-8.566381E-01
-8.546468E-01
-8.543747E-01
-8.542135E-01
-8.559509E-01
-8.530553E-01
-8.530861E-01
-8.527685E-01
-8.527695E-01
-8.520344E-01
-8.523279E-01
-8.536172E-01
-8.544145E-01
-8.534303E-01
-8.530553E-01
-8.550393E-01
-8.521145E-01
-8.517087E-01
-8.513348E-01
-8.515304E-01
-8.510056E-01
-8.511327E-01
-8.527685E-01
-8.530861E-01
-8.533195E-01
-8.523279E-01
-8.521145E-01
-8.543516E-01
-8.507458E-01
-8.508574E-01
-8.508063E-01
-8.506474E-01
-8.496494E-01
-8.501388E-01
-8.513348E-01
-8.517087E-01
-8.527695E-01
-8.511327E-01
-8.507458E-01
-8.531776E-01
-8.497709E-01
-8.495189E-01
-8.494384E-01
-8.492942E-01
-8.486197E-01
-8.488208E-01
-8.485046E-01
-8.506474E-01
-8.508063E-01
-8.508574E-01
-8.515304E-01
-8.501388E-01
-8.497709E-01
-8.520344E-01
-8.481933E-01
-8.481604E-01
-8.480504E-01
-8.479246E-01
-8.469690E-01
-8.472830E-01
-8.475344E-01
-8.492942E-01
-8.494384E-01
-8.495189E-01
-8.510056E-01
-8.485046E-01
-8.481933E-01
-8.469007E-01
-8.467776E-01
-8.473627E-01
-8.467476E-01
-8.466321E-01
-8.464596E-01
-8.453824E-01
-8.458301E-01
-8.479246E-01
-8.488208E-01
-8.480504E-01
-8.481604E-01
-8.496494E-01
-8.475344E-01
-8.469007E-01
-8.454661E-01
-8.450720E-01
-8.455104E-01
-8.451112E-01
-8.447230E-01
-8.447780E-01
-8.440145E-01
-8.444133E-01
-8.466321E-01
-8.473627E-01
-8.472830E-01
-8.467476E-01
-8.467776E-01
-8.486197E-01
-8.458301E-01
-8.454661E-01
-8.436352E-01
-8.440208E-01
-8.440691E-01
-8.445611E-01
-8.441636E-01
-8.436936E-01
-8.422168E-01
-8.426393E-01
-8.447230E-01
-8.455104E-01
-8.464596E-01
-8.451112E-01
-8.450720E-01
-8.469690E-01
-8.444133E-01
-8.436352E-01
-8.422256E-01
-8.419142E-01
-8.420198E-01
-8.427821E-01
-8.424601E-01
-8.418997E-01
-8.408472E-01
-8.411861E-01
-8.409081E-01
-8.436936E-01
-8.441636E-01
-8.445611E-01
-8.447780E-01
-8.440208E-01
-8.440691E-01
-8.453824E-01
-8.426393E-01
-8.422256E-01
-8.401883E-01
-8.412264E-01
-8.409166E-01
-8.406327E-01
-8.406313E-01
-8.401931E-01
-8.387235E-01
-8.392092E-01
-8.393807E-01
-8.418997E-01
-8.424601E-01
-8.427821E-01
-8.440145E-01
-8.419142E-01
-8.420198E-01
-8.409081E-01
-8.401883E-01
-8.387465E-01
-8.394047E-01
-8.388808E-01
-8.387606E-01
-8.396016E-01
-8.391311E-01
-8.384596E-01
-8.381141E-01
-8.366970E-01
-8.370817E-01
-8.401931E-01
-8.411861E-01
-8.406313E-01
-8.412264E-01
-8.422168E-01
-8.409166E-01
-8.406327E-01
-8.393807E-01
-8.387465E-01
-8.365050E-01
-8.373658E-01
-8.370252E-01
-8.367372E-01
-8.372787E-01
-8.370574E-01
-8.360793E-01
-8.359936E-01
-8.349931E-01
-8.356483E-01
-8.384596E-01
-8.396016E-01
-8.392092E-01
-8.391311E-01
-8.394047E-01
-8.408472E-01
-8.388808E-01
-8.387606E-01
-8.370817E-01
-8.365050E-01
-8.346831E-01
-8.358729E-01
-8.363375E-01
-8.350589E-01
-8.348915E-01
-8.362338E-01
-8.354901E-01
-8.347104E-01
-8.327578E-01
-8.332844E-01
-8.360793E-01
-8.372787E-01
-8.381141E-01
-8.370574E-01
-8.373658E-01
-8.387235E-01
-8.370252E-01
-8.367372E-01
-8.356483E-01
-8.346831E-01
-8.327223E-01
-8.332987E-01
-8.338211E-01
-8.328932E-01
-8.325256E-01
-8.340181E-01
-8.334550E-01
-8.324797E-01
-8.310515E-01
-8.315275E-01
-8.314067E-01
-8.347104E-01
-8.354901E-01
-8.362338E-01
-8.359936E-01
-8.358729E-01
-8.363375E-01
-8.366970E-01
-8.350589E-01
-8.348915E-01
-8.332844E-01
-8.327223E-01
-8.302360E-01
-8.322687E-01
-8.322758E-01
-8.323429E-01
-8.312764E-01
-8.310626E-01
-8.311897E-01
-8.304397E-01
-8.284597E-01
-8.291160E-01
-8.289784E-01
-8.324797E-01
-8.334550E-01
-8.340181E-01
-8.349931E-01
-8.332987E-01
-8.338211E-01
-8.328932E-01
-8.325256E-01
-8.314067E-01
-8.302360E-01
-8.283704E-01
-8.300121E-01
-8.299133E-01
-8.300374E-01
-8.285145E-01
-8.283586E-01
-8.298204E-01
-8.294957E-01
-8.282695E-01
-8.277516E-01
-8.259976E-01
-8.267258E-01
-8.304397E-01
-8.315275E-01
-8.311897E-01
-8.322687E-01
-8.327578E-01
-8.322758E-01
-8.323429E-01
-8.312764E-01
-8.310626E-01
-8.289784E-01
-8.283704E-01
-8.256834E-01
-8.276444E-01
-8.276231E-01
-8.278261E-01
-8.270605E-01
-8.264503E-01
-8.270320E-01
-8.269894E-01
-8.254232E-01
-8.251969E-01
-8.239616E-01
-8.246808E-01
-8.282695E-01
-8.298204E-01
-8.291160E-01
-8.294957E-01
-8.300121E-01
-8.310515E-01
-8.299133E-01
-8.300374E-01
-8.285145E-01
-8.283586E-01
-8.267258E-01
-8.256834E-01
-8.237885E-01
-8.257133E-01
-8.265935E-01
-8.254691E-01
-8.255486E-01
-8.243757E-01
-8.240605E-01
-8.258940E-01
-8.248055E-01
-8.237177E-01
-8.212939E-01
-8.217374E-01
-8.254232E-01
-8.270320E-01
-8.277516E-01
-8.269894E-01
-8.276444E-01
-8.284597E-01
-8.276231E-01
-8.278261E-01
-8.270605E-01
-8.264503E-01
-8.246808E-01
-8.237885E-01
-8.209035E-01
-8.226774E-01
-8.236157E-01
-8.228739E-01
-8.228592E-01
-8.220662E-01
-8.213925E-01
-8.232464E-01
-8.224435E-01
-8.210553E-01
-8.192546E-01
-8.198668E-01
-8.198559E-01
-8.237177E-01
-8.248055E-01
-8.258940E-01
-8.251969E-01
-8.257133E-01
-8.265935E-01
-8.259976E-01
-8.254691E-01
-8.255486E-01
-8.243757E-01
-8.240605E-01
-8.217374E-01
-8.209035E-01
-8.185694E-01
-8.213074E-01
-8.216313E-01
-8.220500E-01
-8.211714E-01
-8.213787E-01
-8.194569E-01
-8.190991E-01
-8.197469E-01
-8.186865E-01
-8.162006E-01
-8.170262E-01
-8.168545E-01
-8.210553E-01
-8.224435E-01
-8.232464E-01
-8.239616E-01
-8.226774E-01
-8.236157E-01
-8.228739E-01
-8.228592E-01
-8.220662E-01
-8.213925E-01
-8.198559E-01
-8.185694E-01
-8.161007E-01
-8.186211E-01
-8.189479E-01
-8.193162E-01
-8.179530E-01
-8.182184E-01
-8.167788E-01
-8.160949E-01
-8.180409E-01
-8.178630E-01
-8.160846E-01
-8.153957E-01
-8.133082E-01
-8.145317E-01
-8.186865E-01
-8.198668E-01
-8.197469E-01
-8.213074E-01
-8.212939E-01
-8.216313E-01
-8.220500E-01
-8.211714E-01
-8.213787E-01
-8.194569E-01
-8.190991E-01
-8.168545E-01
-8.161007E-01
-8.129826E-01
-8.159299E-01
-8.162282E-01
-8.169219E-01
-8.164813E-01
-8.162284E-01
-8.146541E-01
-8.141877E-01
-8.147935E-01
-8.149300E-01
-8.127788E-01
-8.124124E-01
-8.109449E-01
-8.114728E-01
-8.160846E-01
-8.180409E-01
-8.170262E-01
-8.178630E-01
-8.186211E-01
-8.192546E-01
-8.189479E-01
-8.193162E-01
-8.179530E-01
-8.182184E-01
-8.167788E-01
-8.160949E-01
-8.145317E-01
-8.129826E-01
-8.106782E-01
-8.148590E-01
-8.135652E-01
-8.138918E-01
-8.142178E-01
-8.134822E-01
-8.134149E-01
-8.112606E-01
-8.108525E-01
-8.135651E-01
-8.121338E-01
-8.107405E-01
-8.078510E-01
-8.087181E-01
-8.127788E-01
-8.147935E-01
-8.153957E-01
-8.149300E-01
-8.159299E-01
-8.162006E-01
-8.162282E-01
-8.169219E-01
-8.164813E-01
-8.162284E-01
-8.146541E-01
-8.141877E-01
-8.114728E-01
-8.106782E-01
-8.073667E-01
-8.114266E-01
-8.100744E-01
-8.108730E-01
-8.112111E-01
-8.107462E-01
-8.105714E-01
-8.093673E-01
-8.084425E-01
-8.104916E-01
-8.094505E-01
-8.076526E-01
-8.054834E-01
-8.062304E-01
-8.061762E-01
-8.107405E-01
-8.121338E-01
-8.135651E-01
-8.124124E-01
-8.135652E-01
-8.148590E-01
-8.133082E-01
-8.138918E-01
-8.142178E-01
-8.134822E-01
-8.134149E-01
-8.112606E-01
-8.108525E-01
-8.087181E-01
-8.073667E-01
-8.050367E-01
-8.097772E-01
-8.090074E-01
-8.083673E-01
-8.090886E-01
-8.097169E-01
-8.079622E-01
-8.078554E-01
-8.060587E-01
-8.055559E-01
-8.063287E-01
-8.049603E-01
-8.019743E-01
-8.029675E-01
-8.026153E-01
-8.076526E-01
-8.094505E-01
-8.104916E-01
-8.109449E-01
-8.100744E-01
-8.114266E-01
-8.108730E-01
-8.112111E-01
-8.107462E-01
-8.105714E-01
-8.093673E-01
-8.084425E-01
-8.061762E-01
-8.050367E-01
-8.015349E-01
-8.066212E-01
-8.060093E-01
-8.052575E-01
-8.054211E-01
-8.061075E-01
-8.048648E-01
-8.045408E-01
-8.033134E-01
-8.022701E-01
-8.042900E-01
-8.042595E-01
-8.019328E-01
-8.010746E-01
-7.986582E-01
-8.003051E-01
-8.049603E-01
-8.062304E-01
-8.063287E-01
-8.083673E-01
-8.078510E-01
-8.090074E-01
-8.097772E-01
-8.090886E-01
-8.097169E-01
-8.079622E-01
-8.078554E-01
-8.060587E-01
-8.055559E-01
-8.026153E-01
-8.015349E-01
-7.987104E-01
-8.040496E-01
-8.028665E-01
-8.022489E-01
-8.039351E-01
-8.040406E-01
-8.026652E-01
-8.026262E-01
-8.000879E-01
-7.995483E-01
-8.005912E-01
-8.009066E-01
-7.981750E-01
-7.976694E-01
-7.959730E-01
-7.966944E-01
-8.019328E-01
-8.042900E-01
-8.029675E-01
-8.042595E-01
-8.052575E-01
-8.054834E-01
-8.060093E-01
-8.066212E-01
-8.054211E-01
-8.061075E-01
-8.048648E-01
-8.045408E-01
-8.033134E-01
-8.022701E-01
-8.003051E-01
-7.987104E-01
-7.957572E-01
-8.009250E-01
-8.011609E-01
-8.003532E-01
-7.994562E-01
-8.006287E-01
-8.008097E-01
-7.988295E-01
-7.988484E-01
-7.969191E-01
-7.959341E-01
-7.992755E-01
-7.975042E-01
-7.958087E-01
-7.924600E-01
-7.939468E-01
-7.981750E-01
-8.005912E-01
-8.010746E-01
-8.009066E-01
-8.022489E-01
-8.019743E-01
-8.028665E-01
-8.040496E-01
-8.039351E-01
-8.040406E-01
-8.026652E-01
-8.026262E-01
-8.000879E-01
-7.995483E-01
-7.966944E-01
-7.957572E-01
-7.920371E-01
-7.976078E-01
-7.972818E-01
-7.969181E-01
-7.955185E-01
-7.974725E-01
-7.977972E-01
-7.969285E-01
-7.963685E-01
-7.943097E-01
-7.936029E-01
-7.957830E-01
-7.945059E-01
-7.923022E-01
-7.897697E-01
-7.906498E-01
-7.902870E-01
-7.958087E-01
-7.975042E-01
-7.992755E-01
-7.976694E-01
-7.994562E-01
-8.011609E-01
-7.986582E-01
-8.003532E-01
-8.009250E-01
-8.006287E-01
-8.008097E-01
-7.988295E-01
-7.988484E-01
-7.969191E-01
-7.959341E-01
-7.939468E-01
-7.920371E-01
-7.893154E-01
-7.961039E-01
-7.950558E-01
-7.955528E-01
-7.944330E-01
-7.934783E-01
-7.945206E-01
-7.946649E-01
-7.933208E-01
-7.930704E-01
-7.903146E-01
-7.896662E-01
-7.909663E-01
-7.892928E-01
-7.858136E-01
-7.869722E-01
-7.870546E-01
-7.923022E-01
-7.945059E-01
-7.957830E-01
-7.959730E-01
-7.955185E-01
-7.972818E-01
-7.969181E-01
-7.976078E-01
-7.974725E-01
-7.977972E-01
-7.969285E-01
-7.963685E-01
-7.943097E-01
-7.936029E-01
-7.902870E-01
-7.893154E-01
-7.854107E-01
-7.920537E-01
-7.909477E-01
-7.919817E-01
-7.911274E-01
-7.899521E-01
-7.910112E-01
-7.910474E-01
-7.901593E-01
-7.896245E-01
-7.880034E-01
-7.867789E-01
-7.885995E-01
-7.887165E-01
-7.858468E-01
-7.848213E-01
-7.820812E-01
-7.840415E-01
-7.892928E-01
-7.906498E-01
-7.909663E-01
-7.934783E-01
-7.924600E-01
-7.944330E-01
-7.955528E-01
-7.950558E-01
-7.961039E-01
-7.945206E-01
-7.946649E-01
-7.933208E-01
-7.930704E-01
-7.903146E-01
-7.896662E-01
-7.870546E-01
-7.854107E-01
-7.826680E-01
-7.899150E-01
-7.894505E-01
-7.892387E-01
-7.875688E-01
-7.866332E-01
-7.887418E-01
-7.891305E-01
-7.867751E-01
-7.864916E-01
-7.841024E-01
-7.834211E-01
-7.844578E-01
-7.849517E-01
-7.816456E-01
-7.810019E-01
-7.790805E-01
-7.798960E-01
-7.858468E-01
-7.885995E-01
-7.869722E-01
-7.887165E-01
-7.899521E-01
-7.897697E-01
-7.911274E-01
-7.919817E-01
-7.909477E-01
-7.920537E-01
-7.910112E-01
-7.910474E-01
-7.901593E-01
-7.896245E-01
-7.880034E-01
-7.867789E-01
-7.840415E-01
-7.826680E-01
-7.785820E-01
-7.862741E-01
-7.858447E-01
-7.857008E-01
-7.855306E-01
-7.848847E-01
-7.834190E-01
-7.844728E-01
-7.849189E-01
-7.831997E-01
-7.825829E-01
-7.809436E-01
-7.795503E-01
-7.830581E-01
-7.809506E-01
-7.789567E-01
-7.751567E-01
-7.771804E-01
-7.816456E-01
-7.844578E-01
-7.848213E-01
-7.849517E-01
-7.866332E-01
-7.858136E-01
-7.875688E-01
-7.892387E-01
-7.894505E-01
-7.899150E-01
-7.887418E-01
-7.891305E-01
-7.867751E-01
-7.864916E-01
-7.841024E-01
-7.834211E-01
-7.798960E-01
-7.785820E-01
-7.752939E-01
-7.830996E-01
-7.822759E-01
-7.820808E-01
-7.812140E-01
-7.810413E-01
-7.790435E-01
-7.825682E-01
-7.823752E-01
-7.805287E-01
-7.802567E-01
-7.771347E-01
-7.764236E-01
-7.791544E-01
-7.776441E-01
-7.750398E-01
-7.721499E-01
-7.731611E-01
-7.729947E-01
-7.789567E-01
-7.809506E-01
-7.830581E-01
-7.810019E-01
-7.834190E-01
-7.855306E-01
-7.820812E-01
-7.848847E-01
-7.857008E-01
-7.858447E-01
-7.862741E-01
-7.844728E-01
-7.849189E-01
-7.831997E-01
-7.825829E-01
-7.809436E-01
-7.795503E-01
-7.771804E-01
-7.752939E-01
-7.718842E-01
-7.795581E-01
-7.805709E-01
-7.791632E-01
-7.791054E-01
-7.794097E-01
-7.779420E-01
-7.766749E-01
-7.786700E-01
-7.786732E-01
-7.761088E-01
-7.758941E-01
-7.735019E-01
-7.722337E-01
-7.736951E-01
-7.717204E-01
-7.677561E-01
-7.690776E-01
-7.698468E-01
-7.750398E-01
-7.776441E-01
-7.791544E-01
-7.790805E-01
-7.790435E-01
-7.812140E-01
-7.810413E-01
-7.820808E-01
-7.822759E-01
-7.830996E-01
-7.825682E-01
-7.823752E-01
-7.805287E-01
-7.802567E-01
-7.771347E-01
-7.764236E-01
-7.729947E-01
-7.718842E-01
-7.675979E-01
-7.756463E-01
-7.760895E-01
-7.752501E-01
-7.745662E-01
-7.754316E-01
-7.743365E-01
-7.727404E-01
-7.750998E-01
-7.750751E-01
-7.738018E-01
-7.729511E-01
-7.704358E-01
-7.695030E-01
-7.710057E-01
-7.712702E-01
-7.678640E-01
-7.666735E-01
-7.636160E-01
-7.656216E-01
-7.717204E-01
-7.731611E-01
-7.736951E-01
-7.766749E-01
-7.751567E-01
-7.779420E-01
-7.794097E-01
-7.791054E-01
-7.805709E-01
-7.791632E-01
-7.795581E-01
-7.786700E-01
-7.786732E-01
-7.761088E-01
-7.758941E-01
-7.735019E-01
-7.722337E-01
-7.698468E-01
-7.675979E-01
-7.644844E-01
-7.737318E-01
-7.729160E-01
-7.738844E-01
-7.730614E-01
-7.725237E-01
-7.703707E-01
-7.691190E-01
-7.715652E-01
-7.715382E-01
-7.696198E-01
-7.691965E-01
-7.658749E-01
-7.650003E-01
-7.664310E-01
-7.671024E-01
-7.632292E-01
-7.624489E-01
-7.603068E-01
-7.619405E-01
-7.678640E-01
-7.710057E-01
-7.690776E-01
-7.712702E-01
-7.727404E-01
-7.721499E-01
-7.743365E-01
-7.754316E-01
-7.745662E-01
-7.760895E-01
-7.752501E-01
-7.756463E-01
-7.750998E-01
-7.750751E-01
-7.738018E-01
-7.729511E-01
-7.704358E-01
-7.695030E-01
-7.656216E-01
-7.644844E-01
-7.600236E-01
-7.690963E-01
-7.682237E-01
-7.698417E-01
-7.691646E-01
-7.685806E-01
-7.680046E-01
-7.675221E-01
-7.654910E-01
-7.675917E-01
-7.673443E-01
-7.660572E-01
-7.651839E-01
-7.631714E-01
-7.616648E-01
-7.649506E-01
-7.625115E-01
-7.602240E-01
-7.559817E-01
-7.584865E-01
-7.632292E-01
-7.664310E-01
-7.666735E-01
-7.671024E-01
-7.691190E-01
-7.677561E-01
-7.703707E-01
-7.725237E-01
-7.730614E-01
-7.738844E-01
-7.729160E-01
-7.737318E-01
-7.715652E-01
-7.715382E-01
-7.696198E-01
-7.691965E-01
-7.658749E-01
-7.650003E-01
-7.619405E-01
-7.600236E-01
-7.568947E-01
-7.664952E-01
-7.663200E-01
-7.665126E-01
-7.651916E-01
-7.646664E-01
-7.632607E-01
-7.632796E-01
-7.606879E-01
-7.648653E-01
-7.650289E-01
-7.621086E-01
-7.616594E-01
-7.587150E-01
-7.578663E-01
-7.606449E-01
-7.589048E-01
-7.559058E-01
-7.526655E-01
-7.538054E-01
-7.537952E-01
-7.602240E-01
-7.625115E-01
-7.649506E-01
-7.624489E-01
-7.654910E-01
-7.680046E-01
-7.636160E-01
-7.675221E-01
-7.685806E-01
-7.691646E-01
-7.698417E-01
-7.682237E-01
-7.690963E-01
-7.675917E-01
-7.673443E-01
-7.660572E-01
-7.651839E-01
-7.631714E-01
-7.616648E-01
-7.584865E-01
-7.568947E-01
-7.522629E-01
-7.623976E-01
-7.621405E-01
-7.625702E-01
-7.631543E-01
-7.619256E-01
-7.612747E-01
-7.613854E-01
-7.595729E-01
-7.579963E-01
-7.600308E-01
-7.602508E-01
-7.580842E-01
-7.571941E-01
-7.551691E-01
-7.534490E-01
-7.545557E-01
-7.522842E-01
-7.478443E-01
-7.493256E-01
-7.507017E-01
-7.559058E-01
-7.589048E-01
-7.606449E-01
-7.603068E-01
-7.606879E-01
-7.632607E-01
-7.632796E-01
-7.646664E-01
-7.651916E-01
-7.665126E-01
-7.663200E-01
-7.664952E-01
-7.648653E-01
-7.650289E-01
-7.621086E-01
-7.616594E-01
-7.587150E-01
-7.578663E-01
-7.537952E-01
-7.522629E-01
-7.485427E-01
-7.586558E-01
-7.581701E-01
-7.583732E-01
-7.582523E-01
-7.576183E-01
-7.563149E-01
-7.570096E-01
-7.556760E-01
-7.536627E-01
-7.577333E-01
-7.572594E-01
-7.549721E-01
-7.544826E-01
-7.508152E-01
-7.499449E-01
-7.515500E-01
-7.519614E-01
-7.480267E-01
-7.466741E-01
-7.433061E-01
-7.459809E-01
-7.522842E-01
-7.538054E-01
-7.545557E-01
-7.579963E-01
-7.559817E-01
-7.595729E-01
-7.613854E-01
-7.612747E-01
-7.631543E-01
-7.619256E-01
-7.625702E-01
-7.621405E-01
-7.623976E-01
-7.600308E-01
-7.602508E-01
-7.580842E-01
-7.571941E-01
-7.551691E-01
-7.534490E-01
-7.507017E-01
-7.485427E-01
-7.447089E-01
-7.547231E-01
-7.564660E-01
-7.544937E-01
-7.552250E-01
-7.559861E-01
-7.548060E-01
-7.539436E-01
-7.513124E-01
-7.497474E-01
-7.532803E-01
-7.531166E-01
-7.500066E-01
-7.495736E-01
-7.467500E-01
-7.452192E-01
-7.465531E-01
-7.474005E-01
-7.429692E-01
-7.420541E-01
-7.396963E-01
-7.424611E-01
-7.480267E-01
-7.515500E-01
-7.493256E-01
-7.519614E-01
-7.536627E-01
-7.526655E-01
-7.556760E-01
-7.570096E-01
-7.563149E-01
-7.582523E-01
-7.576183E-01
-7.583732E-01
-7.581701E-01
-7.586558E-01
-7.577333E-01
-7.572594E-01
-7.549721E-01
-7.544826E-01
-7.508152E-01
-7.499449E-01
-7.459809E-01
-7.447089E-01
-7.398979E-01
-7.502539E-01
-7.514178E-01
-7.501317E-01
-7.501204E-01
-7.515510E-01
-7.506275E-01
-7.496045E-01
-7.486240E-01
-7.483062E-01
-7.457142E-01
-7.493225E-01
-7.489716E-01
-7.473212E-01
-7.461990E-01
-7.432596E-01
-7.421175E-01
-7.449956E-01
-7.422306E-01
-7.396548E-01
-7.349801E-01
-7.377118E-01
-7.429692E-01
-7.465531E-01
-7.466741E-01
-7.474005E-01
-7.497474E-01
-7.478443E-01
-7.513124E-01
-7.539436E-01
-7.548060E-01
-7.559861E-01
-7.552250E-01
-7.564660E-01
-7.544937E-01
-7.547231E-01
-7.532803E-01
-7.531166E-01
-7.500066E-01
-7.495736E-01
-7.467500E-01
-7.452192E-01
-7.424611E-01
-7.398979E-01
-7.364219E-01
-7.479552E-01
-7.473562E-01
-7.487655E-01
-7.482218E-01
-7.480753E-01
-7.462599E-01
-7.454056E-01
-7.434640E-01
-7.436748E-01
-7.404948E-01
-7.452439E-01
-7.450574E-01
-7.426047E-01
-7.420205E-01
-7.381745E-01
-7.370900E-01
-7.402980E-01
-7.383320E-01
-7.349456E-01
-7.313624E-01
-7.326284E-01
-7.336158E-01
-7.396548E-01
-7.422306E-01
-7.449956E-01
-7.420541E-01
-7.457142E-01
-7.486240E-01
-7.433061E-01
-7.483062E-01
-7.496045E-01
-7.506275E-01
-7.515510E-01
-7.501204E-01
-7.514178E-01
-7.501317E-01
-7.502539E-01
-7.493225E-01
-7.489716E-01
-7.473212E-01
-7.461990E-01
-7.432596E-01
-7.421175E-01
-7.377118E-01
-7.364219E-01
-7.314476E-01
-7.427730E-01
-7.421186E-01
-7.442819E-01
-7.437710E-01
-7.437410E-01
-7.438950E-01
-7.428484E-01
-7.416056E-01
-7.415224E-01
-7.393691E-01
-7.374866E-01
-7.408377E-01
-7.403273E-01
-7.386696E-01
-7.374826E-01
-7.351080E-01
-7.333399E-01
-7.335933E-01
-7.310304E-01
-7.261253E-01
-7.277630E-01
-7.297555E-01
-7.349456E-01
-7.383320E-01
-7.402980E-01
-7.396963E-01
-7.404948E-01
-7.434640E-01
-7.436748E-01
-7.454056E-01
-7.462599E-01
-7.480753E-01
-7.482218E-01
-7.487655E-01
-7.473562E-01
-7.479552E-01
-7.452439E-01
-7.450574E-01
-7.426047E-01
-7.420205E-01
-7.381745E-01
-7.370900E-01
-7.336158E-01
-7.314476E-01
-7.279629E-01
-7.397407E-01
-7.398357E-01
-7.404053E-01
-7.394100E-01
-7.392690E-01
-7.385841E-01
-7.381572E-01
-7.362370E-01
-7.367590E-01
-7.351900E-01
-7.327641E-01
-7.376867E-01
-7.376418E-01
-7.341978E-01
-7.335959E-01
-7.301387E-01
-7.291353E-01
-7.302784E-01
-7.308358E-01
-7.263818E-01
-7.248704E-01
-7.211998E-01
-7.245624E-01
-7.310304E-01
-7.326284E-01
-7.335933E-01
-7.374866E-01
-7.349801E-01
-7.393691E-01
-7.415224E-01
-7.416056E-01
-7.438950E-01
-7.428484E-01
-7.437410E-01
-7.437710E-01
-7.442819E-01
-7.421186E-01
-7.427730E-01
-7.408377E-01
-7.403273E-01
-7.386696E-01
-7.374826E-01
-7.351080E-01
-7.333399E-01
-7.297555E-01
-7.279629E-01
-7.228293E-01
-7.352192E-01
-7.351224E-01
-7.360858E-01
-7.373739E-01
-7.356007E-01
-7.357105E-01
-7.362624E-01
-7.347275E-01
-7.335423E-01
-7.304391E-01
-7.285644E-01
-7.323283E-01
-7.323384E-01
-7.297582E-01
-7.286166E-01
-7.262363E-01
-7.242158E-01
-7.248713E-01
-7.258929E-01
-7.209137E-01
-7.198659E-01
-7.172979E-01
-7.211223E-01
-7.263818E-01
-7.302784E-01
-7.277630E-01
-7.308358E-01
-7.327641E-01
-7.313624E-01
-7.351900E-01
-7.367590E-01
-7.362370E-01
-7.385841E-01
-7.381572E-01
-7.392690E-01