# vtk DataFile Version 2.0
Grille
ASCII
DATASET POLYDATA
POINTS 28929 float
0.000000E+00 9.843750E-01 -8.740036E-01
7.812500E-03 9.843750E-01 -8.737936E-01
1.562500E-02 9.843750E-01 -8.729712E-01
1.562500E-02 9.921875E-01 -8.737936E-01
1.562500E-02 1.000000E+00 -8.740036E-01
7.812500E-03 1.000000E+00 -8.748468E-01
0.000000E+00 1.000000E+00 -8.750633E-01
0.000000E+00 9.921875E-01 -8.748468E-01
4.687500E-03 9.890625E-01 -8.745152E-01
1.015625E-02 9.898438E-01 -8.742068E-01
1.093750E-02 9.953125E-01 -8.745152E-01
5.468750E-03 9.945312E-01 -8.748674E-01
2.343750E-02 9.843750E-01 -8.716942E-01
3.125000E-02 9.843750E-01 -8.698236E-01
3.125000E-02 9.921875E-01 -8.706431E-01
3.125000E-02 1.000000E+00 -8.708348E-01
2.343750E-02 1.000000E+00 -8.727494E-01
2.031250E-02 9.890625E-01 -8.728466E-01
2.578125E-02 9.898438E-01 -8.717762E-01
2.656250E-02 9.953125E-01 -8.719814E-01
2.109375E-02 9.945312E-01 -8.730957E-01
0.000000E+00 9.687500E-01 -8.708348E-01
7.812500E-03 9.687500E-01 -8.706431E-01
1.562500E-02 9.687500E-01 -8.698236E-01
1.562500E-02 9.765625E-01 -8.716942E-01
0.000000E+00 9.765625E-01 -8.727494E-01
4.687500E-03 9.734375E-01 -8.719814E-01
1.015625E-02 9.742188E-01 -8.717762E-01
1.093750E-02 9.796875E-01 -8.728466E-01
5.468750E-03 9.789062E-01 -8.730957E-01
2.343750E-02 9.687500E-01 -8.685511E-01
3.125000E-02 9.687500E-01 -8.666871E-01
3.125000E-02 9.765625E-01 -8.685511E-01
2.031250E-02 9.734375E-01 -8.703175E-01
2.578125E-02 9.742188E-01 -8.693521E-01
2.656250E-02 9.796875E-01 -8.703175E-01
2.109375E-02 9.789062E-01 -8.713276E-01
3.906250E-02 9.843750E-01 -8.674998E-01
4.687500E-02 9.843750E-01 -8.645852E-01
4.687500E-02 9.921875E-01 -8.653999E-01
4.687500E-02 1.000000E+00 -8.655728E-01
3.906250E-02 1.000000E+00 -8.685546E-01
3.593750E-02 9.890625E-01 -8.690804E-01
4.140625E-02 9.898438E-01 -8.672503E-01
4.218750E-02 9.953125E-01 -8.673519E-01
3.671875E-02 9.945312E-01 -8.692260E-01
5.468750E-02 9.843750E-01 -8.612197E-01
6.250000E-02 9.843750E-01 -8.572675E-01
6.250000E-02 9.921875E-01 -8.580755E-01
6.250000E-02 1.000000E+00 -8.582292E-01
5.468750E-02 1.000000E+00 -8.622716E-01
5.156250E-02 9.890625E-01 -8.632251E-01
5.703125E-02 9.898438E-01 -8.606393E-01
5.781250E-02 9.953125E-01 -8.606369E-01
5.234375E-02 9.945312E-01 -8.632666E-01
3.906250E-02 9.687500E-01 -8.643714E-01
4.687500E-02 9.687500E-01 -8.614672E-01
4.687500E-02 9.765625E-01 -8.633202E-01
3.593750E-02 9.734375E-01 -8.665620E-01
4.140625E-02 9.742188E-01 -8.648385E-01
4.218750E-02 9.796875E-01 -8.656966E-01
3.671875E-02 9.789062E-01 -8.674655E-01
5.468750E-02 9.687500E-01 -8.581134E-01
6.250000E-02 9.687500E-01 -8.541753E-01
6.250000E-02 9.765625E-01 -8.560130E-01
5.156250E-02 9.734375E-01 -8.607232E-01
5.703125E-02 9.742188E-01 -8.582454E-01
5.781250E-02 9.796875E-01 -8.589941E-01
5.234375E-02 9.789062E-01 -8.615179E-01
0.000000E+00 9.531250E-01 -8.655728E-01
7.812500E-03 9.531250E-01 -8.653999E-01
1.562500E-02 9.531250E-01 -8.645852E-01
1.562500E-02 9.609375E-01 -8.674998E-01
0.000000E+00 9.609375E-01 -8.685546E-01
4.687500E-03 9.578125E-01 -8.673519E-01
1.015625E-02 9.585938E-01 -8.672503E-01
1.093750E-02 9.640625E-01 -8.690804E-01
5.468750E-03 9.632812E-01 -8.692260E-01
2.343750E-02 9.531250E-01 -8.633202E-01
3.125000E-02 9.531250E-01 -8.614672E-01
3.125000E-02 9.609375E-01 -8.643714E-01
2.031250E-02 9.578125E-01 -8.656966E-01
2.578125E-02 9.585938E-01 -8.648385E-01
2.656250E-02 9.640625E-01 -8.665620E-01
2.109375E-02 9.632812E-01 -8.674655E-01
0.000000E+00 9.375000E-01 -8.582292E-01
7.812500E-03 9.375000E-01 -8.580755E-01
1.562500E-02 9.375000E-01 -8.572675E-01
1.562500E-02 9.453125E-01 -8.612197E-01
0.000000E+00 9.453125E-01 -8.622716E-01
4.687500E-03 9.421875E-01 -8.606369E-01
1.015625E-02 9.429688E-01 -8.606393E-01
1.093750E-02 9.484375E-01 -8.632251E-01
5.468750E-03 9.476562E-01 -8.632666E-01
2.343750E-02 9.375000E-01 -8.560130E-01
3.125000E-02 9.375000E-01 -8.541753E-01
3.125000E-02 9.453125E-01 -8.581134E-01
2.031250E-02 9.421875E-01 -8.589941E-01
2.578125E-02 9.429688E-01 -8.582454E-01
2.656250E-02 9.484375E-01 -8.607232E-01
2.109375E-02 9.476562E-01 -8.615179E-01
3.906250E-02 9.531250E-01 -8.591651E-01
4.687500E-02 9.531250E-01 -8.562779E-01
4.687500E-02 9.609375E-01 -8.591651E-01
3.593750E-02 9.578125E-01 -8.619606E-01
4.140625E-02 9.585938E-01 -8.603477E-01
4.218750E-02 9.640625E-01 -8.619606E-01
3.671875E-02 9.632812E-01 -8.636200E-01
5.468750E-02 9.531250E-01 -8.529439E-01
6.250000E-02 9.531250E-01 -8.490291E-01
6.250000E-02 9.609375E-01 -8.518923E-01
5.156250E-02 9.578125E-01 -8.561520E-01
5.703125E-02 9.585938E-01 -8.537880E-01
5.781250E-02 9.640625E-01 -8.552863E-01
5.234375E-02 9.632812E-01 -8.576981E-01
3.906250E-02 9.375000E-01 -8.518923E-01
4.687500E-02 9.375000E-01 -8.490291E-01
4.687500E-02 9.453125E-01 -8.529439E-01
3.593750E-02 9.421875E-01 -8.552863E-01
4.140625E-02 9.429688E-01 -8.537880E-01
4.218750E-02 9.484375E-01 -8.561520E-01
3.671875E-02 9.476562E-01 -8.576981E-01
5.468750E-02 9.375000E-01 -8.457226E-01
6.250000E-02 9.375000E-01 -8.418403E-01
6.250000E-02 9.453125E-01 -8.457226E-01
5.156250E-02 9.421875E-01 -8.495216E-01
5.703125E-02 9.429688E-01 -8.472770E-01
5.781250E-02 9.484375E-01 -8.495216E-01
5.234375E-02 9.476562E-01 -8.518157E-01
7.031250E-02 9.843750E-01 -8.528679E-01
7.812500E-02 9.843750E-01 -8.478869E-01
7.812500E-02 9.921875E-01 -8.486863E-01
7.812500E-02 1.000000E+00 -8.488204E-01
7.031250E-02 1.000000E+00 -8.539144E-01
6.718750E-02 9.890625E-01 -8.552935E-01
7.265625E-02 9.898438E-01 -8.519579E-01
7.343750E-02 9.953125E-01 -8.518515E-01
6.796875E-02 9.945312E-01 -8.552309E-01
8.593750E-02 9.843750E-01 -8.424630E-01
9.375000E-02 9.843750E-01 -8.364645E-01
9.375000E-02 9.921875E-01 -8.372535E-01
9.375000E-02 1.000000E+00 -8.373676E-01
8.593750E-02 1.000000E+00 -8.435017E-01
8.281250E-02 9.890625E-01 -8.453034E-01
8.828125E-02 9.898438E-01 -8.412254E-01
8.906250E-02 9.953125E-01 -8.410152E-01
8.359375E-02 9.945312E-01 -8.451369E-01
7.031250E-02 9.687500E-01 -8.497910E-01
7.812500E-02 9.687500E-01 -8.448278E-01
7.812500E-02 9.765625E-01 -8.466460E-01
6.718750E-02 9.734375E-01 -8.528141E-01
7.265625E-02 9.742188E-01 -8.495875E-01
7.343750E-02 9.796875E-01 -8.502249E-01
6.796875E-02 9.789062E-01 -8.534982E-01
8.593750E-02 9.687500E-01 -8.394229E-01
9.375000E-02 9.687500E-01 -8.334459E-01
9.375000E-02 9.765625E-01 -8.352402E-01
8.281250E-02 9.734375E-01 -8.428523E-01
8.828125E-02 9.742188E-01 -8.388843E-01
8.906250E-02 9.796875E-01 -8.394088E-01
8.359375E-02 9.789062E-01 -8.434242E-01
1.015625E-01 9.843750E-01 -8.300287E-01
1.093750E-01 9.843750E-01 -8.230264E-01
1.093750E-01 9.921875E-01 -8.238032E-01
1.093750E-01 1.000000E+00 -8.238969E-01
1.015625E-01 1.000000E+00 -8.310571E-01
9.843750E-02 9.890625E-01 -8.332774E-01
1.039063E-01 9.898438E-01 -8.284665E-01
1.046875E-01 9.953125E-01 -8.281527E-01
9.921875E-02 9.945312E-01 -8.330074E-01
1.171875E-01 9.843750E-01 -8.155936E-01
1.250000E-01 9.843750E-01 -8.076037E-01
1.250000E-01 9.921875E-01 -8.083663E-01
1.250000E-01 1.000000E+00 -8.084395E-01
1.171875E-01 1.000000E+00 -8.166092E-01
1.140625E-01 9.890625E-01 -8.192431E-01
1.195313E-01 9.898438E-01 -8.137103E-01
1.203125E-01 9.953125E-01 -8.132937E-01
1.148437E-01 9.945312E-01 -8.188702E-01
1.015625E-01 9.687500E-01 -8.270326E-01
1.093750E-01 9.687500E-01 -8.200556E-01
1.093750E-01 9.765625E-01 -8.218217E-01
9.843750E-02 9.734375E-01 -8.308606E-01
1.039063E-01 9.742188E-01 -8.261602E-01
1.046875E-01 9.796875E-01 -8.265704E-01
9.921875E-02 9.789062E-01 -8.313188E-01
1.171875E-01 9.687500E-01 -8.126487E-01
1.250000E-01 9.687500E-01 -8.046877E-01
1.250000E-01 9.765625E-01 -8.064214E-01
1.140625E-01 9.734375E-01 -8.168663E-01
1.195313E-01 9.742188E-01 -8.114445E-01
1.203125E-01 9.796875E-01 -8.117393E-01
1.148437E-01 9.789062E-01 -8.172098E-01
7.031250E-02 9.531250E-01 -8.446704E-01
7.812500E-02 9.531250E-01 -8.397368E-01
7.812500E-02 9.609375E-01 -8.425694E-01
6.718750E-02 9.578125E-01 -8.482839E-01
7.265625E-02 9.585938E-01 -8.451740E-01
7.343750E-02 9.640625E-01 -8.465541E-01
6.796875E-02 9.632812E-01 -8.497129E-01
8.593750E-02 9.531250E-01 -8.343635E-01
9.375000E-02 9.531250E-01 -8.284223E-01
9.375000E-02 9.609375E-01 -8.312175E-01
8.281250E-02 9.578125E-01 -8.383739E-01
8.828125E-02 9.585938E-01 -8.345252E-01
8.906250E-02 9.640625E-01 -8.357837E-01
8.359375E-02 9.632812E-01 -8.396826E-01
7.031250E-02 9.375000E-01 -8.375177E-01
7.812500E-02 9.375000E-01 -8.326253E-01
7.812500E-02 9.453125E-01 -8.364658E-01
6.718750E-02 9.421875E-01 -8.417131E-01
7.265625E-02 9.429688E-01 -8.387272E-01
7.343750E-02 9.484375E-01 -8.408470E-01
6.796875E-02 9.476562E-01 -8.438839E-01
8.593750E-02 9.375000E-01 -8.272964E-01
9.375000E-02 9.375000E-01 -8.214049E-01
9.375000E-02 9.453125E-01 -8.251947E-01
8.281250E-02 9.421875E-01 -8.318783E-01
8.828125E-02 9.429688E-01 -8.281579E-01
8.906250E-02 9.484375E-01 -8.301478E-01
8.359375E-02 9.476562E-01 -8.339209E-01
1.015625E-01 9.531250E-01 -8.220466E-01
1.093750E-01 9.531250E-01 -8.151113E-01
1.093750E-01 9.609375E-01 -8.178626E-01
9.843750E-02 9.578125E-01 -8.264446E-01
1.039063E-01 9.585938E-01 -8.218660E-01
1.046875E-01 9.640625E-01 -8.229998E-01
9.921875E-02 9.632812E-01 -8.276299E-01
1.171875E-01 9.531250E-01 -8.077480E-01
1.250000E-01 9.531250E-01 -7.998348E-01
1.250000E-01 9.609375E-01 -8.025354E-01
1.140625E-01 9.578125E-01 -8.125234E-01
1.195313E-01 9.585938E-01 -8.072255E-01
1.203125E-01 9.640625E-01 -8.082316E-01
1.148437E-01 9.632812E-01 -8.135824E-01
1.015625E-01 9.375000E-01 -8.150820E-01
1.093750E-01 9.375000E-01 -8.082050E-01
1.093750E-01 9.453125E-01 -8.119349E-01
9.843750E-02 9.421875E-01 -8.200397E-01
1.039063E-01 9.429688E-01 -8.155935E-01
1.046875E-01 9.484375E-01 -8.174484E-01
9.921875E-02 9.476562E-01 -8.219492E-01
1.171875E-01 9.375000E-01 -8.009027E-01
1.250000E-01 9.375000E-01 -7.930561E-01
1.250000E-01 9.453125E-01 -7.967173E-01
1.140625E-01 9.421875E-01 -8.062246E-01
1.195313E-01 9.429688E-01 -8.010630E-01
1.203125E-01 9.484375E-01 -8.027783E-01
[...]
CELL_DATA 57344
SCALARS sol float 1
LOOKUP_TABLE default
-8.742405E-01
-8.742855E-01
-8.745908E-01
-8.737668E-01
-8.746393E-01
-8.738022E-01
-8.748461E-01
-8.734164E-01
-8.733397E-01
-8.746393E-01
-8.738022E-01
-8.733302E-01
-8.750633E-01
-8.727092E-01
-8.726780E-01
-8.748461E-01
-8.742855E-01
-8.733302E-01
-8.726302E-01
-8.750633E-01
-8.723977E-01
-8.719988E-01
-8.722200E-01
-8.745908E-01
-8.742405E-01
-8.726302E-01
-8.733397E-01
-8.721223E-01
-8.715891E-01
-8.712990E-01
-8.712475E-01
-8.737668E-01
-8.722200E-01
-8.721223E-01
-8.726780E-01
-8.712064E-01
-8.708971E-01
-8.703708E-01
-8.707419E-01
-8.734164E-01
-8.712475E-01
-8.712064E-01
-8.723977E-01
-8.704413E-01
-8.699711E-01
-8.696705E-01
-8.697346E-01
-8.696941E-01
-8.727092E-01
-8.708971E-01
-8.707419E-01
-8.704413E-01
-8.715891E-01
-8.695299E-01
-8.689227E-01
-8.684751E-01
-8.686196E-01
-8.687325E-01
-8.719988E-01
-8.699711E-01
-8.696941E-01
-8.695299E-01
-8.712990E-01
-8.683506E-01
-8.683820E-01
-8.680586E-01
-8.680596E-01
-8.673110E-01
-8.676100E-01
-8.689227E-01
-8.697346E-01
-8.687325E-01
-8.683506E-01
-8.703708E-01
-8.673926E-01
-8.669794E-01
-8.665987E-01
-8.667978E-01
-8.662635E-01
-8.663929E-01
-8.680586E-01
-8.683820E-01
-8.686196E-01
-8.676100E-01
-8.673926E-01
-8.696705E-01
-8.659990E-01
-8.661126E-01
-8.660606E-01
-8.658987E-01
-8.648826E-01
-8.653809E-01
-8.665987E-01
-8.669794E-01
-8.680596E-01
-8.663929E-01
-8.659990E-01
-8.684751E-01
-8.650063E-01
-8.647497E-01
-8.646678E-01
-8.645209E-01
-8.638340E-01
-8.640388E-01
-8.637169E-01
-8.658987E-01
-8.660606E-01
-8.661126E-01
-8.667978E-01
-8.653809E-01
-8.650063E-01
-8.673110E-01
-8.633999E-01
-8.633664E-01
-8.632543E-01
-8.631263E-01
-8.621532E-01
-8.624730E-01
-8.627290E-01
-8.645209E-01
-8.646678E-01
-8.647497E-01
-8.662635E-01
-8.637169E-01
-8.633999E-01
-8.620837E-01
-8.619584E-01
-8.625541E-01
-8.619278E-01
-8.618102E-01
-8.616345E-01
-8.605377E-01
-8.609936E-01
-8.631263E-01
-8.640388E-01
-8.632543E-01
-8.633664E-01
-8.648826E-01
-8.627290E-01
-8.620837E-01
-8.606229E-01
-8.602216E-01
-8.606680E-01
-8.602616E-01
-8.598662E-01
-8.599222E-01
-8.591449E-01
-8.595510E-01
-8.618102E-01
-8.625541E-01
-8.624730E-01
-8.619278E-01
-8.619584E-01
-8.638340E-01
-8.609936E-01
-8.606229E-01
-8.587586E-01
-8.591513E-01
-8.592004E-01
-8.597015E-01
-8.592966E-01
-8.588181E-01
-8.573144E-01
-8.577445E-01
-8.598662E-01
-8.606680E-01
-8.616345E-01
-8.602616E-01
-8.602216E-01
-8.621532E-01
-8.595510E-01
-8.587586E-01
-8.573234E-01
-8.570063E-01
-8.571138E-01
-8.578900E-01
-8.575621E-01
-8.569916E-01
-8.559198E-01
-8.562649E-01
-8.559818E-01
-8.588181E-01
-8.592966E-01
-8.597015E-01
-8.599222E-01
-8.591513E-01
-8.592004E-01
-8.605377E-01
-8.577445E-01
-8.573234E-01
-8.552489E-01
-8.563059E-01
-8.559905E-01
-8.557014E-01
-8.557000E-01
-8.552537E-01
-8.537574E-01
-8.542520E-01
-8.544266E-01
-8.569916E-01
-8.575621E-01
-8.578900E-01
-8.591449E-01
-8.570063E-01
-8.571138E-01
-8.559818E-01
-8.552489E-01
-8.537808E-01
-8.544510E-01
-8.539176E-01
-8.537952E-01
-8.546515E-01
-8.541725E-01
-8.534887E-01
-8.531369E-01
-8.516940E-01
-8.520857E-01
-8.552537E-01
-8.562649E-01
-8.557000E-01
-8.563059E-01
-8.573144E-01
-8.559905E-01
-8.557014E-01
-8.544266E-01
-8.537808E-01
-8.514985E-01
-8.523749E-01
-8.520282E-01
-8.517349E-01
-8.522862E-01
-8.520610E-01
-8.510650E-01
-8.509777E-01
-8.499591E-01
-8.506262E-01
-8.534887E-01
-8.546515E-01
-8.542520E-01
-8.541725E-01
-8.544510E-01
-8.559198E-01
-8.539176E-01
-8.537952E-01
-8.520857E-01
-8.514985E-01
-8.496434E-01
-8.508548E-01
-8.513280E-01
-8.500260E-01
-8.498557E-01
-8.512223E-01
-8.504650E-01
-8.496711E-01
-8.476830E-01
-8.482193E-01
-8.510650E-01
-8.522862E-01
-8.531369E-01
-8.520610E-01
-8.523749E-01
-8.537574E-01
-8.520282E-01
-8.517349E-01
-8.506262E-01
-8.496434E-01
-8.476469E-01
-8.482338E-01
-8.487657E-01
-8.478208E-01
-8.474466E-01
-8.489662E-01
-8.483930E-01
-8.473999E-01
-8.459455E-01
-8.464303E-01
-8.463073E-01
-8.496711E-01
-8.504650E-01
-8.512223E-01
-8.509777E-01
-8.508548E-01
-8.513280E-01
-8.516940E-01
-8.500260E-01
-8.498557E-01
-8.482193E-01
-8.476469E-01
-8.451153E-01
-8.471850E-01
-8.471922E-01
-8.472606E-01
-8.461747E-01
-8.459569E-01
-8.460863E-01
-8.453226E-01
-8.433066E-01
-8.439749E-01
-8.438348E-01
-8.473999E-01
-8.483930E-01
-8.489662E-01
-8.499591E-01
-8.482338E-01
-8.487657E-01
-8.478208E-01
-8.474466E-01
-8.463073E-01
-8.451153E-01
-8.432158E-01
-8.448874E-01
-8.447868E-01
-8.449131E-01
-8.433624E-01
-8.432037E-01
-8.446920E-01
-8.443615E-01
-8.431130E-01
-8.425857E-01
-8.407996E-01
-8.415411E-01
-8.453226E-01
-8.464303E-01
-8.460863E-01
-8.471850E-01
-8.476830E-01
-8.471922E-01
-8.472606E-01
-8.461747E-01
-8.459569E-01
-8.438348E-01
-8.432158E-01
-8.404799E-01
-8.424764E-01
-8.424548E-01
-8.426615E-01
-8.418820E-01
-8.412606E-01
-8.418529E-01
-8.418096E-01
-8.402148E-01
-8.399844E-01
-8.387266E-01
-8.394589E-01
-8.431130E-01
-8.446920E-01
-8.439749E-01
-8.443615E-01
-8.448874E-01
-8.459455E-01
-8.447868E-01
-8.449131E-01
-8.433624E-01
-8.432037E-01
-8.415411E-01
-8.404799E-01
-8.385504E-01
-8.405103E-01
-8.414065E-01
-8.402616E-01
-8.403426E-01
-8.391484E-01
-8.388274E-01
-8.406942E-01
-8.395858E-01
-8.384782E-01
-8.360103E-01
-8.364619E-01
-8.402148E-01
-8.418529E-01
-8.425857E-01
-8.418096E-01
-8.424764E-01
-8.433066E-01
-8.424548E-01
-8.426615E-01
-8.418820E-01
-8.412606E-01
-8.394589E-01
-8.385504E-01
-8.356129E-01
-8.374190E-01
-8.383744E-01
-8.376191E-01
-8.376042E-01
-8.367968E-01
-8.361108E-01
-8.379984E-01
-8.371810E-01
-8.357675E-01
-8.339339E-01
-8.345573E-01
-8.345463E-01
-8.384782E-01
-8.395858E-01
-8.406942E-01
-8.399844E-01
-8.405103E-01
-8.414065E-01
-8.407996E-01
-8.402616E-01
-8.403426E-01
-8.391484E-01
-8.388274E-01
-8.364619E-01
-8.356129E-01
-8.332362E-01
-8.360240E-01
-8.363538E-01
-8.367802E-01
-8.358857E-01
-8.360968E-01
-8.341400E-01
-8.337758E-01
-8.344352E-01
-8.333555E-01
-8.308245E-01
-8.316651E-01
-8.314904E-01
-8.357675E-01
-8.371810E-01
-8.379984E-01
-8.387266E-01
-8.374190E-01
-8.383744E-01
-8.376191E-01
-8.376042E-01
-8.367968E-01
-8.361108E-01
-8.345463E-01
-8.332362E-01
-8.307228E-01
-8.332891E-01
-8.336218E-01
-8.339967E-01
-8.326087E-01
-8.328789E-01
-8.314131E-01
-8.307169E-01
-8.326982E-01
-8.325171E-01
-8.307064E-01
-8.300050E-01
-8.278794E-01
-8.291252E-01
-8.333555E-01
-8.345573E-01
-8.344352E-01
-8.360240E-01
-8.360103E-01
-8.363538E-01
-8.367802E-01
-8.358857E-01
-8.360968E-01
-8.341400E-01
-8.337758E-01
-8.314904E-01
-8.307228E-01
-8.275479E-01
-8.305487E-01
-8.308525E-01
-8.315589E-01
-8.311103E-01
-8.308526E-01
-8.292498E-01
-8.287749E-01
-8.293917E-01
-8.295307E-01
-8.273403E-01
-8.269673E-01
-8.254732E-01
-8.260107E-01
-8.307064E-01
-8.326982E-01
-8.316651E-01
-8.325171E-01
-8.332891E-01
-8.339339E-01
-8.336218E-01
-8.339967E-01
-8.326087E-01
-8.328789E-01
-8.314131E-01
-8.307169E-01
-8.291252E-01
-8.275479E-01
-8.252018E-01
-8.294585E-01
-8.281411E-01
-8.284736E-01
-8.288057E-01
-8.280567E-01
-8.279881E-01
-8.257946E-01
-8.253791E-01
-8.281411E-01
-8.266835E-01
-8.252650E-01
-8.223229E-01
-8.232058E-01
-8.273403E-01
-8.293917E-01
-8.300050E-01
-8.295307E-01
-8.305487E-01
-8.308245E-01
-8.308525E-01
-8.315589E-01
-8.311103E-01
-8.308526E-01
-8.292498E-01
-8.287749E-01
-8.260107E-01
-8.252018E-01
-8.218301E-01
-8.259636E-01
-8.245868E-01
-8.254000E-01
-8.257441E-01
-8.252708E-01
-8.250928E-01
-8.238669E-01
-8.229252E-01
-8.250116E-01
-8.239517E-01
-8.221210E-01
-8.199123E-01
-8.206729E-01
-8.206178E-01
-8.252650E-01
-8.266835E-01
-8.281411E-01
-8.269673E-01
-8.281411E-01
-8.294585E-01
-8.278794E-01
-8.284736E-01
-8.288057E-01
-8.280567E-01
-8.279881E-01
-8.257946E-01
-8.253791E-01
-8.232058E-01
-8.218301E-01
-8.194577E-01
-8.242843E-01
-8.235003E-01
-8.228487E-01
-8.235832E-01
-8.242229E-01
-8.224363E-01
-8.223277E-01
-8.204984E-01
-8.199863E-01
-8.207730E-01
-8.193797E-01
-8.163396E-01
-8.173509E-01
-8.169923E-01
-8.221210E-01
-8.239517E-01
-8.250116E-01
-8.254732E-01
-8.245868E-01
-8.259636E-01
-8.254000E-01
-8.257441E-01
-8.252708E-01
-8.250928E-01
-8.238669E-01
-8.229252E-01
-8.206178E-01
-8.194577E-01
-8.158922E-01
-8.210709E-01
-8.204480E-01
-8.196825E-01
-8.198490E-01
-8.205478E-01
-8.192825E-01
-8.189527E-01
-8.177030E-01
-8.166407E-01
-8.186973E-01
-8.186663E-01
-8.162974E-01
-8.154236E-01
-8.129630E-01
-8.146402E-01
-8.193797E-01
-8.206729E-01
-8.207730E-01
-8.228487E-01
-8.223229E-01
-8.235003E-01
-8.242843E-01
-8.235832E-01
-8.242229E-01
-8.224363E-01
-8.223277E-01
-8.204984E-01
-8.199863E-01
-8.169923E-01
-8.158922E-01
-8.130163E-01
-8.184525E-01
-8.172479E-01
-8.166190E-01
-8.183359E-01
-8.184433E-01
-8.170431E-01
-8.170033E-01
-8.144190E-01
-8.138697E-01
-8.149313E-01
-8.152525E-01
-8.124712E-01
-8.119564E-01
-8.102292E-01
-8.109640E-01
-8.162974E-01
-8.186973E-01
-8.173509E-01
-8.186663E-01
-8.196825E-01
-8.199123E-01
-8.204480E-01
-8.210709E-01
-8.198490E-01
-8.205478E-01
-8.192825E-01
-8.189527E-01
-8.177030E-01
-8.166407E-01
-8.146402E-01
-8.130163E-01
-8.100096E-01
-8.152714E-01
-8.155114E-01
-8.146891E-01
-8.137758E-01
-8.149696E-01
-8.151539E-01
-8.131377E-01
-8.131569E-01
-8.111925E-01
-8.101898E-01
-8.135918E-01
-8.117881E-01
-8.100618E-01
-8.066524E-01
-8.081664E-01
-8.124712E-01
-8.149313E-01
-8.154236E-01
-8.152525E-01
-8.166190E-01
-8.163396E-01
-8.172479E-01
-8.184525E-01
-8.183359E-01
-8.184433E-01
-8.170431E-01
-8.170033E-01
-8.144190E-01
-8.138697E-01
-8.109640E-01
-8.100096E-01
-8.062220E-01
-8.118936E-01
-8.115618E-01
-8.111915E-01
-8.097665E-01
-8.117560E-01
-8.120866E-01
-8.112021E-01
-8.106319E-01
-8.085358E-01
-8.078163E-01
-8.100357E-01
-8.087355E-01
-8.064917E-01
-8.039132E-01
-8.048094E-01
-8.044400E-01
-8.100618E-01
-8.117881E-01
-8.135918E-01
-8.119564E-01
-8.137758E-01
-8.155114E-01
-8.129630E-01
-8.146891E-01
-8.152714E-01
-8.149696E-01
-8.151539E-01
-8.131377E-01
-8.131569E-01
-8.111925E-01
-8.101898E-01
-8.081664E-01
-8.062220E-01
-8.034511E-01
-8.103626E-01
-8.092955E-01
-8.098015E-01
-8.086611E-01
-8.076892E-01
-8.087506E-01
-8.088977E-01
-8.075292E-01
-8.072741E-01
-8.044683E-01
-8.038080E-01
-8.051316E-01
-8.034276E-01
-7.998855E-01
-8.010652E-01
-8.011488E-01
-8.064917E-01
-8.087355E-01
-8.100357E-01
-8.102292E-01
-8.097665E-01
-8.115618E-01
-8.111915E-01
-8.118936E-01
-8.117560E-01
-8.120866E-01
-8.112021E-01
-8.106319E-01
-8.085358E-01
-8.078163E-01
-8.044400E-01
-8.034511E-01
-7.994755E-01
-8.062388E-01
-8.051127E-01
-8.061655E-01
-8.052957E-01
-8.040991E-01
-8.051773E-01
-8.052143E-01
-8.043100E-01
-8.037656E-01
-8.021152E-01
-8.008681E-01
-8.027219E-01
-8.028411E-01
-7.999193E-01
-7.988752E-01
-7.960851E-01
-7.980813E-01
-8.034276E-01
-8.048094E-01
-8.051316E-01
-8.076892E-01
-8.066524E-01
-8.086611E-01
-8.098015E-01
-8.092955E-01
-8.103626E-01
-8.087506E-01
-8.088977E-01
-8.075292E-01
-8.072741E-01
-8.044683E-01
-8.038080E-01
-8.011488E-01
-7.994755E-01
-7.966830E-01
-8.040613E-01
-8.035883E-01
-8.033727E-01
-8.016724E-01
-8.007197E-01
-8.028668E-01
-8.032626E-01
-8.008645E-01
-8.005760E-01
-7.981436E-01
-7.974497E-01
-7.985051E-01
-7.990080E-01
-7.956418E-01
-7.949864E-01
-7.930301E-01
-7.938607E-01
-7.999193E-01
-8.027219E-01
-8.010652E-01
-8.028411E-01
-8.040991E-01
-8.039132E-01
-8.052957E-01
-8.061655E-01
-8.051127E-01
-8.062388E-01
-8.051773E-01
-8.052143E-01
-8.043100E-01
-8.037656E-01
-8.021152E-01
-8.008681E-01
-7.980813E-01
-7.966830E-01
-7.925228E-01
-8.003544E-01
-7.999173E-01
-7.997708E-01
-7.995974E-01
-7.989397E-01
-7.974475E-01
-7.985205E-01
-7.989746E-01
-7.972241E-01
-7.965963E-01
-7.949272E-01
-7.935087E-01
-7.970801E-01
-7.949340E-01
-7.929041E-01
-7.890353E-01
-7.910960E-01
-7.956418E-01
-7.985051E-01
-7.988752E-01
-7.990080E-01
-8.007197E-01
-7.998855E-01
-8.016724E-01
-8.033727E-01
-8.035883E-01
-8.040613E-01
-8.028668E-01
-8.032626E-01
-8.008645E-01
-8.005760E-01
-7.981436E-01
-7.974497E-01
-7.938607E-01
-7.925228E-01
-7.891749E-01
-7.971222E-01
-7.962835E-01
-7.960849E-01
-7.952025E-01
-7.950266E-01
-7.929926E-01
-7.965812E-01
-7.963847E-01
-7.945048E-01
-7.942279E-01
-7.910492E-01
-7.903256E-01
-7.931055E-01
-7.915678E-01
-7.889162E-01
-7.859739E-01
-7.870035E-01
-7.868346E-01
-7.929041E-01
-7.949340E-01
-7.970801E-01
-7.949864E-01
-7.974475E-01
-7.995974E-01
-7.960851E-01
-7.989397E-01
-7.997708E-01
-7.999173E-01
-8.003544E-01
-7.985205E-01
-7.989746E-01
-7.972241E-01
-7.965963E-01
-7.949272E-01
-7.935087E-01
-7.910960E-01
-7.891749E-01
-7.857036E-01
-7.935168E-01
-7.945478E-01
-7.931145E-01
-7.930557E-01
-7.933655E-01
-7.918709E-01
-7.905809E-01
-7.926126E-01
-7.926157E-01
-7.900048E-01
-7.897861E-01
-7.873505E-01
-7.860596E-01
-7.875471E-01
-7.855365E-01
-7.815007E-01
-7.828462E-01
-7.836293E-01
-7.889162E-01
-7.915678E-01
-7.931055E-01
-7.930301E-01
-7.929926E-01
-7.952025E-01
-7.950266E-01
-7.960849E-01
-7.962835E-01
-7.971222E-01
-7.965812E-01
-7.963847E-01
-7.945048E-01
-7.942279E-01
-7.910492E-01
-7.903256E-01
-7.868346E-01
-7.857036E-01
-7.813398E-01
-7.895337E-01
-7.899851E-01
-7.891304E-01
-7.884342E-01
-7.893152E-01
-7.882003E-01
-7.865753E-01
-7.889774E-01
-7.889523E-01
-7.876560E-01
-7.867897E-01
-7.842290E-01
-7.832794E-01
-7.848091E-01
-7.850784E-01
-7.816106E-01
-7.803986E-01
-7.772852E-01
-7.793276E-01
-7.855365E-01
-7.870035E-01
-7.875471E-01
-7.905809E-01
-7.890353E-01
-7.918709E-01
-7.933655E-01
-7.930557E-01
-7.945478E-01
-7.931145E-01
-7.935168E-01
-7.926126E-01
-7.926157E-01
-7.900048E-01
-7.897861E-01
-7.873505E-01
-7.860596E-01
-7.836293E-01
-7.813398E-01
-7.781701E-01
-7.875847E-01
-7.867541E-01
-7.877400E-01
-7.869019E-01
-7.863545E-01
-7.841624E-01
-7.828879E-01
-7.853789E-01
-7.853516E-01
-7.833985E-01
-7.829673E-01
-7.795856E-01
-7.786949E-01
-7.801516E-01
-7.808352E-01
-7.768916E-01
-7.760972E-01
-7.739163E-01
-7.755796E-01
-7.816106E-01
-7.848091E-01
-7.828462E-01
-7.850784E-01
-7.865753E-01
-7.859739E-01
-7.882003E-01
-7.893152E-01
-7.884342E-01
-7.899851E-01
-7.891304E-01
-7.895337E-01
-7.889774E-01
-7.889523E-01
-7.876560E-01
-7.867897E-01
-7.842290E-01
-7.832794E-01
-7.793276E-01
-7.781701E-01
-7.736285E-01
-7.828652E-01
-7.819769E-01
-7.836241E-01
-7.829349E-01
-7.823402E-01
-7.817537E-01
-7.812624E-01
-7.791945E-01
-7.813333E-01
-7.810815E-01
-7.797710E-01
-7.788820E-01
-7.768332E-01
-7.752988E-01
-7.786444E-01
-7.761607E-01
-7.738320E-01
-7.695129E-01
-7.720634E-01
-7.768916E-01
-7.801516E-01
-7.803986E-01
-7.808352E-01
-7.828879E-01
-7.815007E-01
-7.841624E-01
-7.863545E-01
-7.869019E-01
-7.877400E-01
-7.867541E-01
-7.875847E-01
-7.853789E-01
-7.853516E-01
-7.833985E-01
-7.829673E-01
-7.795856E-01
-7.786949E-01
-7.755796E-01
-7.736285E-01
-7.704427E-01
-7.802168E-01
-7.800384E-01
-7.802346E-01
-7.788896E-01
-7.783548E-01
-7.769238E-01
-7.769432E-01
-7.743044E-01
-7.785576E-01
-7.787243E-01
-7.757510E-01
-7.752940E-01
-7.722962E-01
-7.714319E-01
-7.742606E-01
-7.724890E-01
-7.694357E-01
-7.661366E-01
-7.672973E-01
-7.672873E-01
-7.738320E-01
-7.761607E-01
-7.786444E-01
-7.760972E-01
-7.791945E-01
-7.817537E-01
-7.772852E-01
-7.812624E-01
-7.823402E-01
-7.829349E-01
-7.836241E-01
-7.819769E-01
-7.828652E-01
-7.813333E-01
-7.810815E-01
-7.797710E-01
-7.788820E-01
-7.768332E-01
-7.752988E-01
-7.720634E-01
-7.704427E-01
-7.657270E-01
-7.760453E-01
-7.757836E-01
-7.762210E-01
-7.768156E-01
-7.755646E-01
-7.749019E-01
-7.750147E-01
-7.731690E-01
-7.715639E-01
-7.736357E-01
-7.738594E-01
-7.716536E-01
-7.707476E-01
-7.686859E-01
-7.669347E-01
-7.680611E-01
-7.657484E-01
-7.612284E-01
-7.627366E-01
-7.641380E-01
-7.694357E-01
-7.724890E-01
-7.742606E-01
-7.739163E-01
-7.743044E-01
-7.769238E-01
-7.769432E-01
-7.783548E-01
-7.788896E-01
-7.802346E-01
-7.800384E-01
-7.802168E-01
-7.785576E-01
-7.787243E-01
-7.757510E-01
-7.752940E-01
-7.722962E-01
-7.714319E-01
-7.672873E-01
-7.657270E-01
-7.619393E-01
-7.722356E-01
-7.717410E-01
-7.719477E-01
-7.718248E-01
-7.711793E-01
-7.698524E-01
-7.705595E-01
-7.692019E-01
-7.671520E-01
-7.712964E-01
-7.708138E-01
-7.684853E-01
-7.679871E-01
-7.642533E-01
-7.633675E-01
-7.650011E-01
-7.654200E-01
-7.614141E-01
-7.600372E-01
-7.566078E-01
-7.593319E-01
-7.657484E-01
-7.672973E-01
-7.680611E-01
-7.715639E-01
-7.695129E-01
-7.731690E-01
-7.750147E-01
-7.749019E-01
-7.768156E-01
-7.755646E-01
-7.762210E-01
-7.757836E-01
-7.760453E-01
-7.736357E-01
-7.738594E-01
-7.716536E-01
-7.707476E-01
-7.686859E-01
-7.669347E-01
-7.641380E-01
-7.619393E-01
-7.580365E-01
-7.682320E-01
-7.700063E-01
-7.679983E-01
-7.687428E-01
-7.695176E-01
-7.683158E-01
-7.674379E-01
-7.647591E-01
-7.631656E-01
-7.667632E-01
-7.665963E-01
-7.634301E-01
-7.629891E-01
-7.601142E-01
-7.585563E-01
-7.599139E-01
-7.607768E-01
-7.562650E-01
-7.553333E-01
-7.529328E-01
-7.557481E-01
-7.614141E-01
-7.650011E-01
-7.627366E-01
-7.654200E-01
-7.671520E-01
-7.661366E-01
-7.692019E-01
-7.705595E-01
-7.698524E-01
-7.718248E-01
-7.711793E-01
-7.719477E-01
-7.717410E-01
-7.722356E-01
-7.712964E-01
-7.708138E-01
-7.684853E-01
-7.679871E-01
-7.642533E-01
-7.633675E-01
-7.593319E-01
-7.580365E-01
-7.531386E-01
-7.636816E-01
-7.648666E-01
-7.635572E-01
-7.635458E-01
-7.650023E-01
-7.640621E-01
-7.630206E-01
-7.620222E-01
-7.616987E-01
-7.590598E-01
-7.627334E-01
-7.623762E-01
-7.606961E-01
-7.595532E-01
-7.565610E-01
-7.553984E-01
-7.583284E-01
-7.555128E-01
-7.528906E-01
-7.481315E-01
-7.509130E-01
-7.562650E-01
-7.599139E-01
-7.600372E-01
-7.607768E-01
-7.631656E-01
-7.612284E-01
-7.647591E-01
-7.674379E-01
-7.683158E-01
-7.695176E-01
-7.687428E-01
-7.700063E-01
-7.679983E-01
-7.682320E-01
-7.667632E-01
-7.665963E-01
-7.634301E-01
-7.629891E-01
-7.601142E-01
-7.585563E-01
-7.557481E-01
-7.531386E-01
-7.496001E-01
-7.613417E-01
-7.607316E-01
-7.621663E-01
-7.616127E-01
-7.614635E-01
-7.596152E-01
-7.587453E-01
-7.567690E-01
-7.569837E-01
-7.537459E-01
-7.585812E-01
-7.583916E-01
-7.558946E-01
-7.552996E-01
-7.513841E-01
-7.502798E-01
-7.535455E-01
-7.515440E-01
-7.480964E-01
-7.444484E-01
-7.457373E-01
-7.467426E-01
-7.528906E-01
-7.555128E-01
-7.583284E-01
-7.553333E-01
-7.590598E-01
-7.620222E-01
-7.566078E-01
-7.616987E-01
-7.630206E-01
-7.640621E-01
-7.650023E-01
-7.635458E-01
-7.648666E-01
-7.635572E-01
-7.636816E-01
-7.627334E-01
-7.623762E-01
-7.606961E-01
-7.595532E-01
-7.565610E-01
-7.553984E-01
-7.509130E-01
-7.496001E-01
-7.445359E-01
-7.560655E-01
-7.553994E-01
-7.576018E-01
-7.570817E-01
-7.570511E-01
-7.572078E-01
-7.561423E-01
-7.548770E-01
-7.547923E-01
-7.525996E-01
-7.506833E-01
-7.540951E-01
-7.535757E-01
-7.518880E-01
-7.506796E-01
-7.482624E-01
-7.464618E-01
-7.467196E-01
-7.441103E-01
-7.391169E-01
-7.407843E-01
-7.428129E-01
-7.480964E-01
-7.515440E-01
-7.535455E-01
-7.529328E-01
-7.537459E-01
-7.567690E-01
-7.569837E-01
-7.587453E-01
-7.596152E-01
-7.614635E-01
-7.616127E-01
-7.621663E-01
-7.607316E-01
-7.613417E-01
-7.585812E-01
-7.583916E-01
-7.558946E-01
-7.552996E-01
-7.513841E-01
-7.502798E-01
-7.467426E-01
-7.445359E-01
-7.409880E-01
-7.529783E-01
-7.530751E-01
-7.536549E-01
-7.526416E-01
-7.524979E-01
-7.518009E-01
-7.513663E-01
-7.494113E-01
-7.499427E-01
-7.483453E-01
-7.458756E-01
-7.508873E-01
-7.508419E-01
-7.473355E-01
-7.467231E-01
-7.432035E-01
-7.421816E-01
-7.433449E-01
-7.439125E-01
-7.393781E-01
-7.378395E-01
-7.341021E-01
-7.375262E-01
-7.441103E-01
-7.457373E-01
-7.467196E-01
-7.506833E-01
-7.481315E-01
-7.525996E-01
-7.547923E-01
-7.548770E-01
-7.572078E-01
-7.561423E-01
-7.570511E-01
-7.570817E-01
-7.576018E-01
-7.553994E-01
-7.560655E-01
-7.540951E-01
-7.535757E-01
-7.518880E-01
-7.506796E-01
-7.482624E-01
-7.464618E-01
-7.428129E-01
-7.409880E-01
-7.357617E-01
-7.483753E-01
-7.482770E-01
-7.492576E-01
-7.505689E-01
-7.487637E-01
-7.488753E-01
-7.494373E-01
-7.478742E-01
-7.466677E-01
-7.435085E-01
-7.415997E-01
-7.454323E-01
-7.454424E-01
-7.428153E-01
-7.416537E-01
-7.392303E-01
-7.371733E-01
-7.378403E-01
-7.388805E-01
-7.338109E-01
-7.327443E-01
-7.301299E-01
-7.340243E-01
-7.393781E-01
-7.433449E-01
-7.407843E-01
-7.439125E-01
-7.458756E-01
-7.444484E-01
-7.483453E-01
-7.499427E-01
-7.494113E-01
-7.518009E-01
-7.513663E-01
-7.524979E-01