# vtk DataFile Version 2.0
Grille
ASCII
DATASET POLYDATA
POINTS 481 float
0.000000E+00 8.750000E-01 -5.811357E-01
6.250000E-02 8.750000E-01 -5.727829E-01
1.250000E-01 8.750000E-01 -5.396372E-01
1.250000E-01 9.375000E-01 -5.727829E-01
1.250000E-01 1.000000E+00 -5.811357E-01
6.250000E-02 1.000000E+00 -6.169789E-01
0.000000E+00 1.000000E+00 -6.261591E-01
0.000000E+00 9.375000E-01 -6.169789E-01
3.750000E-02 9.125000E-01 -6.029998E-01
8.125000E-02 9.187500E-01 -5.901984E-01
8.750000E-02 9.625000E-01 -6.029998E-01
4.375000E-02 9.562500E-01 -6.178835E-01
1.875000E-01 8.750000E-01 -4.883791E-01
2.500000E-01 8.750000E-01 -4.152760E-01
2.500000E-01 9.375000E-01 -4.420374E-01
2.500000E-01 1.000000E+00 -4.478282E-01
1.875000E-01 1.000000E+00 -5.277111E-01
1.625000E-01 9.125000E-01 -5.338156E-01
2.062500E-01 9.187500E-01 -4.895549E-01
2.125000E-01 9.625000E-01 -4.959246E-01
1.687500E-01 9.562500E-01 -5.429729E-01
0.000000E+00 7.500000E-01 -4.478282E-01
6.250000E-02 7.500000E-01 -4.420374E-01
1.250000E-01 7.500000E-01 -4.152760E-01
1.250000E-01 8.125000E-01 -4.883791E-01
0.000000E+00 8.125000E-01 -5.277111E-01
3.750000E-02 7.875000E-01 -4.959246E-01
8.125000E-02 7.937500E-01 -4.895549E-01
8.750000E-02 8.375000E-01 -5.338156E-01
4.375000E-02 8.312500E-01 -5.429729E-01
1.875000E-01 7.500000E-01 -3.743846E-01
2.500000E-01 7.500000E-01 -3.170573E-01
2.500000E-01 8.125000E-01 -3.743846E-01
1.625000E-01 7.875000E-01 -4.367842E-01
2.062500E-01 7.937500E-01 -4.033519E-01
2.125000E-01 8.375000E-01 -4.367842E-01
1.687500E-01 8.312500E-01 -4.750167E-01
3.125000E-01 8.750000E-01 -3.266442E-01
3.750000E-01 8.750000E-01 -2.237191E-01
3.750000E-01 9.375000E-01 -2.384538E-01
3.750000E-01 1.000000E+00 -2.405548E-01
3.125000E-01 1.000000E+00 -3.545058E-01
2.875000E-01 9.125000E-01 -3.814646E-01
3.312500E-01 9.187500E-01 -3.101286E-01
3.375000E-01 9.625000E-01 -3.082730E-01
2.937500E-01 9.562500E-01 -3.832101E-01
4.375000E-01 8.750000E-01 -1.134600E-01
5.000000E-01 8.750000E-01 3.511955E-05
5.000000E-01 9.375000E-01 2.542884E-04
5.000000E-01 1.000000E+00 2.488323E-03
4.375000E-01 1.000000E+00 -1.236396E-01
4.125000E-01 9.125000E-01 -1.668669E-01
4.562500E-01 9.187500E-01 -8.181173E-02
4.625000E-01 9.625000E-01 -7.191049E-02
4.187500E-01 9.562500E-01 -1.603303E-01
3.125000E-01 7.500000E-01 -2.482519E-01
3.750000E-01 7.500000E-01 -1.698004E-01
3.750000E-01 8.125000E-01 -2.010280E-01
2.875000E-01 7.875000E-01 -3.095257E-01
3.312500E-01 7.937500E-01 -2.537673E-01
3.375000E-01 8.375000E-01 -2.701171E-01
2.937500E-01 8.312500E-01 -3.331287E-01
4.375000E-01 7.500000E-01 -8.582726E-02
5.000000E-01 7.500000E-01 -1.703535E-04
5.000000E-01 8.125000E-01 2.118559E-05
4.125000E-01 7.875000E-01 -1.347068E-01
4.562500E-01 7.937500E-01 -6.700172E-02
4.625000E-01 8.375000E-01 -6.304775E-02
4.187500E-01 8.312500E-01 -1.391282E-01
0.000000E+00 6.250000E-01 -2.405548E-01
6.250000E-02 6.250000E-01 -2.384538E-01
1.250000E-01 6.250000E-01 -2.237191E-01
1.250000E-01 6.875000E-01 -3.266442E-01
0.000000E+00 6.875000E-01 -3.545058E-01
3.750000E-02 6.625000E-01 -3.082730E-01
8.125000E-02 6.687500E-01 -3.101286E-01
8.750000E-02 7.125000E-01 -3.814646E-01
4.375000E-02 7.062500E-01 -3.832101E-01
1.875000E-01 6.250000E-01 -2.010280E-01
2.500000E-01 6.250000E-01 -1.698004E-01
2.500000E-01 6.875000E-01 -2.482519E-01
1.625000E-01 6.625000E-01 -2.701171E-01
2.062500E-01 6.687500E-01 -2.537673E-01
2.125000E-01 7.125000E-01 -3.095257E-01
1.687500E-01 7.062500E-01 -3.331287E-01
0.000000E+00 5.000000E-01 2.488323E-03
6.250000E-02 5.000000E-01 2.542884E-04
1.250000E-01 5.000000E-01 3.511955E-05
1.250000E-01 5.625000E-01 -1.134600E-01
0.000000E+00 5.625000E-01 -1.236396E-01
3.750000E-02 5.375000E-01 -7.191049E-02
8.125000E-02 5.437500E-01 -8.181173E-02
8.750000E-02 5.875000E-01 -1.668669E-01
4.375000E-02 5.812500E-01 -1.603303E-01
1.875000E-01 5.000000E-01 2.118559E-05
2.500000E-01 5.000000E-01 -1.703535E-04
2.500000E-01 5.625000E-01 -8.582726E-02
1.625000E-01 5.375000E-01 -6.304775E-02
2.062500E-01 5.437500E-01 -6.700172E-02
2.125000E-01 5.875000E-01 -1.347068E-01
1.687500E-01 5.812500E-01 -1.391282E-01
3.125000E-01 6.250000E-01 -1.322788E-01
3.750000E-01 6.250000E-01 -9.039224E-02
3.750000E-01 6.875000E-01 -1.322788E-01
2.875000E-01 6.625000E-01 -1.897580E-01
3.312500E-01 6.687500E-01 -1.583289E-01
3.375000E-01 7.125000E-01 -1.897580E-01
2.937500E-01 7.062500E-01 -2.313513E-01
4.375000E-01 6.250000E-01 -4.537518E-02
5.000000E-01 6.250000E-01 -1.633551E-04
5.000000E-01 6.875000E-01 1.059481E-04
4.125000E-01 6.625000E-01 -8.196085E-02
4.562500E-01 6.687500E-01 -4.173824E-02
4.625000E-01 7.125000E-01 -4.413815E-02
4.187500E-01 7.062500E-01 -9.612148E-02
3.125000E-01 5.000000E-01 1.059481E-04
3.750000E-01 5.000000E-01 -1.633551E-04
3.750000E-01 5.625000E-01 -4.537518E-02
2.875000E-01 5.375000E-01 -4.413815E-02
3.312500E-01 5.437500E-01 -4.173824E-02
3.375000E-01 5.875000E-01 -8.196085E-02
2.937500E-01 5.812500E-01 -9.612148E-02
4.375000E-01 5.000000E-01 2.633295E-04
5.000000E-01 5.000000E-01 -1.333203E-04
5.000000E-01 5.625000E-01 2.633295E-04
4.125000E-01 5.375000E-01 -1.884320E-02
4.562500E-01 5.437500E-01 -1.109446E-02
4.625000E-01 5.875000E-01 -1.884320E-02
4.187500E-01 5.812500E-01 -3.975734E-02
5.625000E-01 8.750000E-01 1.141884E-01
6.250000E-01 8.750000E-01 2.240237E-01
6.250000E-01 9.375000E-01 2.390871E-01
6.250000E-01 1.000000E+00 2.453182E-01
5.625000E-01 1.000000E+00 1.235097E-01
5.375000E-01 9.125000E-01 7.029083E-02
5.812500E-01 9.187500E-01 1.568098E-01
5.875000E-01 9.625000E-01 1.733837E-01
5.437500E-01 9.562500E-01 8.440434E-02
6.875000E-01 8.750000E-01 3.277492E-01
7.500000E-01 8.750000E-01 4.161314E-01
7.500000E-01 9.375000E-01 4.430237E-01
7.500000E-01 1.000000E+00 4.518255E-01
6.875000E-01 1.000000E+00 3.548216E-01
6.625000E-01 9.125000E-01 2.992083E-01
7.062500E-01 9.187500E-01 3.747511E-01
7.125000E-01 9.625000E-01 3.952646E-01
6.687500E-01 9.562500E-01 3.187720E-01
5.625000E-01 7.500000E-01 8.648620E-02
6.250000E-01 7.500000E-01 1.697818E-01
6.250000E-01 8.125000E-01 2.013216E-01
5.375000E-01 7.875000E-01 5.680254E-02
5.812500E-01 7.937500E-01 1.276148E-01
5.875000E-01 8.375000E-01 1.514765E-01
5.437500E-01 8.312500E-01 7.282763E-02
6.875000E-01 7.500000E-01 2.492344E-01
7.500000E-01 7.500000E-01 3.175906E-01
7.500000E-01 8.125000E-01 3.752804E-01
6.625000E-01 7.875000E-01 2.423282E-01
7.062500E-01 7.937500E-01 3.067979E-01
7.125000E-01 8.375000E-01 3.466640E-01
6.687500E-01 8.312500E-01 2.765039E-01
8.125000E-01 8.750000E-01 4.896068E-01
8.750000E-01 8.750000E-01 5.408064E-01
8.750000E-01 9.375000E-01 5.740248E-01
8.750000E-01 1.000000E+00 5.838928E-01
8.125000E-01 1.000000E+00 5.284168E-01
7.875000E-01 9.125000E-01 4.816105E-01
8.312500E-01 9.187500E-01 5.315156E-01
8.375000E-01 9.625000E-01 5.517913E-01
7.937500E-01 9.562500E-01 5.024656E-01
9.375000E-01 8.750000E-01 5.740248E-01
1.000000E+00 8.750000E-01 5.838928E-01
1.000000E+00 9.375000E-01 6.180495E-01
1.000000E+00 1.000000E+00 6.282018E-01
9.375000E-01 1.000000E+00 6.180495E-01
9.125000E-01 9.125000E-01 5.862446E-01
9.562500E-01 9.187500E-01 6.051735E-01
9.625000E-01 9.625000E-01 6.225472E-01
9.187500E-01 9.562500E-01 6.051735E-01
8.125000E-01 7.500000E-01 3.752804E-01
8.750000E-01 7.500000E-01 4.161314E-01
8.750000E-01 8.125000E-01 4.896068E-01
7.875000E-01 7.875000E-01 3.928866E-01
8.312500E-01 7.937500E-01 4.388335E-01
8.375000E-01 8.375000E-01 4.870686E-01
7.937500E-01 8.312500E-01 4.388335E-01
9.375000E-01 7.500000E-01 4.430237E-01
1.000000E+00 7.500000E-01 4.518255E-01
1.000000E+00 8.125000E-01 5.284168E-01
9.125000E-01 7.875000E-01 4.816105E-01
9.562500E-01 7.937500E-01 5.024656E-01
9.625000E-01 8.375000E-01 5.517913E-01
9.187500E-01 8.312500E-01 5.315156E-01
5.625000E-01 6.250000E-01 4.597139E-02
6.250000E-01 6.250000E-01 9.018206E-02
6.250000E-01 6.875000E-01 1.327711E-01
5.375000E-01 6.625000E-01 3.473736E-02
5.812500E-01 6.687500E-01 7.906140E-02
5.875000E-01 7.125000E-01 1.061090E-01
5.437500E-01 7.062500E-01 5.007376E-02
6.875000E-01 6.250000E-01 1.327711E-01
7.500000E-01 6.250000E-01 1.697818E-01
7.500000E-01 6.875000E-01 2.492344E-01
6.625000E-01 6.625000E-01 1.483228E-01
7.062500E-01 6.687500E-01 1.915204E-01
7.125000E-01 7.125000E-01 2.444196E-01
6.687500E-01 7.062500E-01 1.915204E-01
5.625000E-01 5.000000E-01 2.633295E-04
6.250000E-01 5.000000E-01 -1.633551E-04
6.250000E-01 5.625000E-01 4.597139E-02
5.375000E-01 5.375000E-01 8.325305E-03
5.812500E-01 5.437500E-01 2.048913E-02
5.875000E-01 5.875000E-01 4.590835E-02
5.437500E-01 5.812500E-01 2.048913E-02
6.875000E-01 5.000000E-01 1.059481E-04
7.500000E-01 5.000000E-01 -1.703535E-04
7.500000E-01 5.625000E-01 8.648620E-02
6.625000E-01 5.375000E-01 3.473736E-02
7.062500E-01 5.437500E-01 5.007376E-02
7.125000E-01 5.875000E-01 1.061090E-01
6.687500E-01 5.812500E-01 7.906140E-02
8.125000E-01 6.250000E-01 2.013216E-01
8.750000E-01 6.250000E-01 2.240237E-01
8.750000E-01 6.875000E-01 3.277492E-01
7.875000E-01 6.625000E-01 2.423282E-01
8.312500E-01 6.687500E-01 2.765039E-01
8.375000E-01 7.125000E-01 3.466640E-01
7.937500E-01 7.062500E-01 3.067979E-01
9.375000E-01 6.250000E-01 2.390871E-01
1.000000E+00 6.250000E-01 2.453182E-01
1.000000E+00 6.875000E-01 3.548216E-01
9.125000E-01 6.625000E-01 2.992083E-01
9.562500E-01 6.687500E-01 3.187720E-01
9.625000E-01 7.125000E-01 3.952646E-01
9.187500E-01 7.062500E-01 3.747511E-01
8.125000E-01 5.000000E-01 2.118559E-05
8.750000E-01 5.000000E-01 3.511955E-05
8.750000E-01 5.625000E-01 1.141884E-01
7.875000E-01 5.375000E-01 5.680254E-02
8.312500E-01 5.437500E-01 7.282763E-02
8.375000E-01 5.875000E-01 1.514765E-01
7.937500E-01 5.812500E-01 1.276148E-01
9.375000E-01 5.000000E-01 2.542884E-04
1.000000E+00 5.000000E-01 2.488323E-03
1.000000E+00 5.625000E-01 1.235097E-01
9.125000E-01 5.375000E-01 7.029083E-02
9.562500E-01 5.437500E-01 8.440434E-02
9.625000E-01 5.875000E-01 1.733837E-01
9.187500E-01 5.812500E-01 1.568098E-01
0.000000E+00 3.750000E-01 2.453182E-01
6.250000E-02 3.750000E-01 2.390871E-01
[...]
CELL_DATA 896
SCALARS sol float 1
LOOKUP_TABLE default
-5.913737E-01
-5.934086E-01
-6.061008E-01
-5.710928E-01
-6.082735E-01
-5.733554E-01
-6.169666E-01
-5.559756E-01
-5.536090E-01
-6.082735E-01
-5.733554E-01
-5.540510E-01
-6.261591E-01
-5.261815E-01
-5.260661E-01
-6.169666E-01
-5.934086E-01
-5.540510E-01
-5.254838E-01
-6.261591E-01
-5.138911E-01
-4.957259E-01
-5.083542E-01
-6.061008E-01
-5.913737E-01
-5.254838E-01
-5.536090E-01
-5.056585E-01
-4.802961E-01
-4.673075E-01
-4.697019E-01
-5.710928E-01
-5.083542E-01
-5.056585E-01
-5.260661E-01
-4.698133E-01
-4.537969E-01
-4.288958E-01
-4.515090E-01
-5.559756E-01
-4.697019E-01
-4.698133E-01
-5.138911E-01
-4.414305E-01
-4.172278E-01
-3.993835E-01
-4.049455E-01
-4.134771E-01
-5.261815E-01
-4.537969E-01
-4.515090E-01
-4.414305E-01
-4.802961E-01
-4.089188E-01
-3.775822E-01
-3.514074E-01
-3.609733E-01
-3.771459E-01
-4.957259E-01
-4.172278E-01
-4.134771E-01
-4.089188E-01
-4.673075E-01
-3.688978E-01
-3.425010E-01
-3.617673E-01
-3.371609E-01
-3.043971E-01
-3.408854E-01
-3.775822E-01
-4.049455E-01
-3.771459E-01
-3.688978E-01
-4.288958E-01
-3.374797E-01
-2.902315E-01
-3.119972E-01
-2.886915E-01
-2.657903E-01
-3.002192E-01
-3.425010E-01
-3.617673E-01
-3.609733E-01
-3.408854E-01
-3.374797E-01
-3.993835E-01
-2.945792E-01
-2.599478E-01
-2.760139E-01
-2.875458E-01
-2.155101E-01
-2.729318E-01
-2.902315E-01
-3.119972E-01
-3.371609E-01
-3.002192E-01
-2.945792E-01
-3.514074E-01
-2.672727E-01
-2.118282E-01
-2.345194E-01
-2.445620E-01
-1.765215E-01
-1.892147E-01
-2.264667E-01
-2.599478E-01
-2.760139E-01
-2.875458E-01
-2.886915E-01
-2.729318E-01
-2.672727E-01
-3.043971E-01
-2.239557E-01
-1.687773E-01
-1.886645E-01
-2.099967E-01
-1.191765E-01
-1.368667E-01
-2.048165E-01
-2.118282E-01
-2.345194E-01
-2.445620E-01
-2.657903E-01
-2.264667E-01
-2.239557E-01
-1.934090E-01
-1.597701E-01
-1.216120E-01
-1.586976E-01
-1.703478E-01
-1.057304E-01
-6.541375E-02
-1.660858E-01
-1.687773E-01
-1.892147E-01
-1.886645E-01
-2.099967E-01
-2.155101E-01
-2.048165E-01
-1.934090E-01
-1.619006E-01
-1.056334E-01
-6.599700E-02
-1.134650E-01
-1.307192E-01
-5.238254E-02
-2.399993E-02
-1.324913E-01
-1.216120E-01
-1.597701E-01
-1.368667E-01
-1.586976E-01
-1.703478E-01
-1.765215E-01
-1.660858E-01
-1.619006E-01
-1.279271E-01
-9.008733E-02
-5.918161E-02
-2.717987E-02
-9.637027E-02
-1.174794E-01
2.885988E-02
-1.033546E-01
-6.599700E-02
-1.056334E-01
-1.057304E-01
-1.134650E-01
-1.307192E-01
-1.191765E-01
-1.324913E-01
-1.279271E-01
-1.026777E-01
-4.466076E-02
-2.175882E-02
2.338708E-02
-5.161105E-02
-7.546743E-02
7.050709E-02
5.262558E-02
-7.259991E-02
-2.717987E-02
-5.918161E-02
-9.008733E-02
-5.238254E-02
-9.637027E-02
-1.174794E-01
-6.541375E-02
-1.033546E-01
-1.026777E-01
-7.318169E-02
-2.216451E-02
2.537605E-02
6.243107E-02
-4.379206E-02
-6.036360E-02
1.284062E-01
1.053040E-01
-5.670147E-02
2.338708E-02
-2.175882E-02
-4.466076E-02
-2.399993E-02
-5.161105E-02
-7.546743E-02
-7.259991E-02
-7.318169E-02
-5.778246E-02
1.871635E-02
6.320406E-02
4.403520E-02
1.147637E-01
-1.558102E-02
-2.953658E-02
1.391432E-01
1.814408E-01
-2.903270E-02
6.243107E-02
5.262558E-02
2.537605E-02
-2.216451E-02
2.885988E-02
-4.379206E-02
-6.036360E-02
-5.670147E-02
-5.778246E-02
-3.443128E-02
4.865034E-02
1.138708E-01
8.719662E-02
1.661146E-01
1.800207E-02
-1.351512E-02
1.902092E-01
2.204669E-01
-2.185077E-02
1.147637E-01
6.320406E-02
1.053040E-01
4.403520E-02
1.871635E-02
7.050709E-02
-1.558102E-02
-2.953658E-02
-2.903270E-02
-3.443128E-02
-2.250156E-02
4.641705E-02
9.125279E-02
1.181928E-01
1.645680E-01
2.088326E-01
2.896014E-02
1.151777E-02
2.701808E-01
-6.728790E-03
1.661146E-01
1.138708E-01
1.391432E-01
8.719662E-02
4.865034E-02
1.284062E-01
1.800207E-02
-1.351512E-02
-2.185077E-02
-2.250156E-02
-1.018949E-02
8.142240E-02
1.290582E-01
1.601877E-01
1.932368E-01
2.562760E-01
5.577271E-02
2.732326E-02
3.091844E-01
2.883962E-01
7.927874E-03
2.088326E-01
1.645680E-01
1.181928E-01
1.902092E-01
9.125279E-02
4.641705E-02
1.814408E-01
2.896014E-02
1.151777E-02
-6.728790E-03
-1.018949E-02
-2.986304E-03
7.893384E-02
1.216532E-01
1.682593E-01
2.371328E-01
2.868424E-01
5.385136E-02
2.305163E-02
3.597616E-01
3.345060E-01
1.002159E-02
2.562760E-01
1.932368E-01
1.601877E-01
2.204669E-01
1.290582E-01
8.142240E-02
5.577271E-02
2.732326E-02
7.927874E-03
-2.986304E-03
2.719663E-03
1.057871E-01
1.365102E-01
2.062357E-01
2.791868E-01
2.423665E-01
3.371552E-01
7.286258E-02
3.737623E-02
3.659965E-01
4.039712E-01
1.732451E-02
2.868424E-01
2.883962E-01
2.371328E-01
1.682593E-01
2.701808E-01
1.216532E-01
7.893384E-02
5.385136E-02
2.305163E-02
1.002159E-02
2.719663E-03
2.719663E-03
1.021987E-01
1.672015E-01
2.231782E-01
3.195882E-01
2.780481E-01
3.765483E-01
6.063068E-02
2.939920E-02
4.068658E-01
4.335584E-01
1.002159E-02
3.371552E-01
2.791868E-01
3.345060E-01
2.423665E-01
2.062357E-01
3.091844E-01
1.365102E-01
1.057871E-01
7.286258E-02
3.737623E-02
1.732451E-02
2.719663E-03
-2.986304E-03
1.250363E-01
2.061584E-01
1.591802E-01
2.688737E-01
3.121735E-01
3.671174E-01
4.158427E-01
6.063068E-02
3.737623E-02
4.705788E-01
7.927874E-03
3.765483E-01
3.195882E-01
3.659965E-01
2.780481E-01
2.231782E-01
3.597616E-01
1.672015E-01
1.021987E-01
6.063068E-02
2.939920E-02
1.002159E-02
-2.986304E-03
-1.018949E-02
1.250363E-01
2.295069E-01
1.790464E-01
2.945931E-01
3.445977E-01
3.823962E-01
4.513498E-01
7.286258E-02
2.305163E-02
4.991936E-01
4.798702E-01
-6.728790E-03
4.158427E-01
3.671174E-01
3.121735E-01
4.068658E-01
2.688737E-01
2.061584E-01
4.039712E-01
1.591802E-01
1.250363E-01
6.063068E-02
3.737623E-02
7.927874E-03
-1.018949E-02
-2.250156E-02
1.021987E-01
1.591802E-01
2.101858E-01
2.726719E-01
3.373194E-01
4.150215E-01
4.674416E-01
5.385136E-02
2.732326E-02
5.319693E-01
5.097589E-01
-2.185077E-02
4.513498E-01
3.823962E-01
3.445977E-01
4.335584E-01
2.945931E-01
2.295069E-01
1.790464E-01
1.250363E-01
7.286258E-02
2.305163E-02
-6.728790E-03
-2.250156E-02
-3.443128E-02
1.057871E-01
1.672015E-01
2.295069E-01
2.726719E-01
3.657782E-01
4.533339E-01
4.062352E-01
5.053947E-01
5.577271E-02
1.151777E-02
5.326742E-01
5.594959E-01
-2.903270E-02
4.674416E-01
4.798702E-01
4.150215E-01
3.373194E-01
4.705788E-01
2.726719E-01
2.101858E-01
1.591802E-01
1.021987E-01
5.385136E-02
2.732326E-02
-2.185077E-02
-3.443128E-02
-5.778246E-02
7.893384E-02
1.365102E-01
2.061584E-01
2.945931E-01
3.657782E-01
4.751105E-01
4.274128E-01
5.259249E-01
2.896014E-02
-1.351512E-02
5.561452E-01
5.746680E-01
-5.670147E-02
5.053947E-01
4.533339E-01
5.097589E-01
4.062352E-01
3.657782E-01
4.991936E-01
2.726719E-01
2.295069E-01
1.672015E-01
1.057871E-01
5.577271E-02
1.151777E-02
-2.903270E-02
-5.778246E-02
-7.318169E-02
8.142240E-02
1.216532E-01
2.231782E-01
3.373194E-01
2.688737E-01
4.062352E-01
4.581439E-01
5.104137E-01
5.544364E-01
1.800207E-02
-2.953658E-02
5.933316E-01
-7.259991E-02
5.259249E-01
4.751105E-01
5.326742E-01
4.274128E-01
3.657782E-01
5.319693E-01
2.945931E-01
2.061584E-01
1.365102E-01
7.893384E-02
2.896014E-02
-1.351512E-02
-5.670147E-02
-7.318169E-02
-1.026777E-01
4.641705E-02
1.290582E-01
2.062357E-01
3.445977E-01
2.780481E-01
4.150215E-01
4.751105E-01
5.104137E-01
5.724508E-01
-1.558102E-02
-6.036360E-02
6.080758E-01
5.931565E-01
-1.033546E-01
5.544364E-01
5.104137E-01
4.581439E-01
5.561452E-01
4.062352E-01
3.373194E-01
5.594959E-01
2.688737E-01
2.231782E-01
1.216532E-01
8.142240E-02
1.800207E-02
-2.953658E-02
-7.259991E-02
-1.026777E-01
-1.279271E-01
4.865034E-02
1.682593E-01
9.125279E-02
2.423665E-01
3.121735E-01
3.823962E-01
4.533339E-01
5.259249E-01
5.724508E-01
-4.379206E-02
-7.546743E-02
6.197122E-01
6.036039E-01
-1.324913E-01
5.724508E-01
5.104137E-01
4.751105E-01
5.746680E-01
4.150215E-01
3.445977E-01
2.780481E-01
2.062357E-01
1.290582E-01
4.641705E-02
-1.558102E-02
-6.036360E-02
-1.033546E-01
-1.279271E-01
-1.619006E-01
1.871635E-02
1.601877E-01
8.719662E-02
2.371328E-01
3.195882E-01
3.671174E-01
4.674416E-01
5.544364E-01
5.053947E-01
5.931565E-01
-5.161105E-02
-1.174794E-01
6.154337E-01
6.282018E-01
-1.660858E-01
5.724508E-01
5.931565E-01
5.259249E-01
4.533339E-01
5.933316E-01
3.823962E-01
3.121735E-01
2.423665E-01
1.682593E-01
9.125279E-02
4.865034E-02
-4.379206E-02
-7.546743E-02
-1.324913E-01
-1.619006E-01
-1.934090E-01
4.403520E-02
-2.216451E-02
1.181928E-01
1.932368E-01
2.791868E-01
3.765483E-01
4.513498E-01
5.561452E-01
5.097589E-01
5.933316E-01
-9.637027E-02
-1.307192E-01
6.197122E-01
6.282018E-01
-2.048165E-01
5.931565E-01
5.544364E-01
6.036039E-01
5.053947E-01
4.674416E-01
6.080758E-01
3.671174E-01
3.195882E-01
2.371328E-01
1.601877E-01
8.719662E-02
1.871635E-02
-5.161105E-02
-1.174794E-01
-1.660858E-01
-1.934090E-01
-2.239557E-01
2.537605E-02
-4.466076E-02
1.138708E-01
1.645680E-01
2.868424E-01
4.158427E-01
3.371552E-01
4.798702E-01
5.326742E-01
5.746680E-01
6.080758E-01
-1.134650E-01
-1.703478E-01
-2.264667E-01
5.933316E-01
5.561452E-01
6.154337E-01
5.097589E-01
4.513498E-01
6.197122E-01
3.765483E-01
2.791868E-01
1.932368E-01
1.181928E-01
4.403520E-02
-2.216451E-02
-9.637027E-02
-1.307192E-01
-2.048165E-01
-2.239557E-01
-2.672727E-01
6.320406E-02
-2.175882E-02
-9.008733E-02
1.661146E-01
2.562760E-01
4.068658E-01
3.345060E-01
4.705788E-01
5.319693E-01
5.594959E-01
-1.586976E-01
-2.099967E-01
-2.729318E-01
6.080758E-01
5.746680E-01
5.326742E-01
6.197122E-01
4.798702E-01
4.158427E-01
6.282018E-01
3.371552E-01
2.868424E-01
1.645680E-01
1.138708E-01
2.537605E-02
-4.466076E-02
-1.134650E-01
-1.703478E-01
-2.264667E-01
-2.672727E-01
-2.945792E-01
6.243107E-02
-5.918161E-02
-1.056334E-01
2.088326E-01
1.147637E-01
2.883962E-01
3.659965E-01
4.335584E-01
4.991936E-01
-1.886645E-01
-2.445620E-01
-3.002192E-01
5.594959E-01
5.319693E-01
6.282018E-01
4.705788E-01
4.068658E-01
3.345060E-01
2.562760E-01
1.661146E-01
6.320406E-02
-2.175882E-02
-9.008733E-02
-1.586976E-01
-2.099967E-01
-2.729318E-01
-2.945792E-01
-3.374797E-01
2.338708E-02
-6.599700E-02
-1.597701E-01
1.902092E-01
1.053040E-01
2.701808E-01
3.597616E-01
4.039712E-01
-2.345194E-01
-2.875458E-01
-3.408854E-01
4.991936E-01
4.335584E-01
3.659965E-01
2.883962E-01
2.088326E-01
1.147637E-01
6.243107E-02
-5.918161E-02
-1.056334E-01
-1.886645E-01
-2.445620E-01
-3.002192E-01
-3.374797E-01
-3.688978E-01
5.262558E-02
-2.717987E-02
-1.216120E-01
-1.687773E-01
1.391432E-01
2.204669E-01
3.091844E-01
-2.760139E-01
-3.119972E-01
-3.771459E-01
4.039712E-01
3.597616E-01
2.701808E-01
1.902092E-01
1.053040E-01
2.338708E-02
-6.599700E-02
-1.597701E-01
-2.345194E-01
-2.875458E-01
-3.408854E-01
-3.688978E-01
-4.089188E-01
2.885988E-02
-5.238254E-02
-1.368667E-01
-2.118282E-01
1.284062E-01
1.814408E-01
-2.902315E-01
-3.617673E-01
-4.134771E-01
3.091844E-01
2.204669E-01
1.391432E-01
5.262558E-02
-2.717987E-02
-1.216120E-01
-1.687773E-01
-2.760139E-01
-3.119972E-01
-3.771459E-01
-4.089188E-01
-4.414305E-01
7.050709E-02
-2.399993E-02
-1.057304E-01
-1.892147E-01
-2.599478E-01
-3.425010E-01
-3.775822E-01
-4.515090E-01
1.814408E-01
1.284062E-01
2.885988E-02
-5.238254E-02
-1.368667E-01
-2.118282E-01
-2.902315E-01
-3.617673E-01
-4.134771E-01
-4.414305E-01
-4.698133E-01
-6.541375E-02
-1.191765E-01
-2.155101E-01
-2.886915E-01
-3.609733E-01
-4.172278E-01
-4.697019E-01
7.050709E-02
-2.399993E-02
-1.057304E-01
-1.892147E-01
-2.599478E-01
-3.425010E-01
-3.775822E-01
-4.515090E-01
-4.698133E-01
-5.056585E-01
-1.765215E-01
-2.657903E-01
-3.371609E-01
-4.049455E-01
-4.537969E-01
-5.083542E-01
-6.541375E-02
-1.191765E-01
-2.155101E-01
-2.886915E-01
-3.609733E-01
-4.172278E-01
-4.697019E-01
-5.056585E-01
-5.254838E-01
-3.043971E-01
-3.514074E-01
-4.288958E-01
-4.802961E-01
-5.260661E-01
-1.765215E-01
-2.657903E-01
-3.371609E-01
-4.049455E-01
-4.537969E-01
-5.083542E-01
-5.254838E-01
-5.540510E-01
-3.993835E-01
-4.673075E-01
-5.138911E-01
-5.536090E-01
-3.043971E-01
-3.514074E-01
-4.288958E-01
-4.802961E-01
-5.260661E-01
-5.540510E-01
-5.733554E-01
-4.957259E-01
-5.261815E-01
-5.710928E-01
-3.993835E-01
-4.673075E-01
-5.138911E-01
-5.536090E-01
-5.733554E-01
-5.934086E-01
-5.559756E-01
-5.913737E-01
-4.957259E-01
-5.261815E-01
-5.710928E-01
-5.934086E-01
-6.082735E-01
-6.061008E-01
-5.559756E-01
-5.913737E-01
-6.082735E-01
-6.169666E-01
-6.061008E-01
-6.169666E-01
-6.261591E-01
-6.261591E-01
