# vtk DataFile Version 2.0
Grille
ASCII
DATASET POLYDATA
POINTS 481 float
0.000000E+00 8.750000E-01 -5.236910E-01
6.250000E-02 8.750000E-01 -5.159548E-01
1.250000E-01 8.750000E-01 -4.856849E-01
1.250000E-01 9.375000E-01 -5.159548E-01
1.250000E-01 1.000000E+00 -5.236910E-01
6.250000E-02 1.000000E+00 -5.569236E-01
0.000000E+00 1.000000E+00 -5.655177E-01
0.000000E+00 9.375000E-01 -5.569236E-01
3.750000E-02 9.125000E-01 -5.438751E-01
8.125000E-02 9.187500E-01 -5.320355E-01
8.750000E-02 9.625000E-01 -5.438751E-01
4.375000E-02 9.562500E-01 -5.577663E-01
1.875000E-01 8.750000E-01 -4.392519E-01
2.500000E-01 8.750000E-01 -3.735988E-01
2.500000E-01 9.375000E-01 -3.975422E-01
2.500000E-01 1.000000E+00 -4.028565E-01
1.875000E-01 1.000000E+00 -4.749213E-01
1.625000E-01 9.125000E-01 -4.803283E-01
2.062500E-01 9.187500E-01 -4.403020E-01
2.125000E-01 9.625000E-01 -4.460827E-01
1.687500E-01 9.562500E-01 -4.887137E-01
0.000000E+00 7.500000E-01 -4.028565E-01
6.250000E-02 7.500000E-01 -3.975422E-01
1.250000E-01 7.500000E-01 -3.735988E-01
1.250000E-01 8.125000E-01 -4.392519E-01
0.000000E+00 8.125000E-01 -4.749213E-01
3.750000E-02 7.875000E-01 -4.460827E-01
8.125000E-02 7.937500E-01 -4.403020E-01
8.750000E-02 8.375000E-01 -4.803283E-01
4.375000E-02 8.312500E-01 -4.887137E-01
1.875000E-01 7.500000E-01 -3.369589E-01
2.500000E-01 7.500000E-01 -2.856587E-01
2.500000E-01 8.125000E-01 -3.369589E-01
1.625000E-01 7.875000E-01 -3.928661E-01
2.062500E-01 7.937500E-01 -3.629688E-01
2.125000E-01 8.375000E-01 -3.928661E-01
1.687500E-01 8.312500E-01 -4.273486E-01
3.125000E-01 8.750000E-01 -2.945310E-01
3.750000E-01 8.750000E-01 -2.024335E-01
3.750000E-01 9.375000E-01 -2.158086E-01
3.750000E-01 1.000000E+00 -2.177966E-01
3.125000E-01 1.000000E+00 -3.196155E-01
2.875000E-01 9.125000E-01 -3.433805E-01
3.312500E-01 9.187500E-01 -2.798597E-01
3.375000E-01 9.625000E-01 -2.784176E-01
2.937500E-01 9.562500E-01 -3.449726E-01
4.375000E-01 8.750000E-01 -1.030849E-01
5.000000E-01 8.750000E-01 1.397092E-04
5.000000E-01 9.375000E-01 3.188910E-04
5.000000E-01 1.000000E+00 2.266006E-03
4.375000E-01 1.000000E+00 -1.124688E-01
4.125000E-01 9.125000E-01 -1.513307E-01
4.562500E-01 9.187500E-01 -7.446997E-02
4.625000E-01 9.625000E-01 -6.563624E-02
4.187500E-01 9.562500E-01 -1.454751E-01
3.125000E-01 7.500000E-01 -2.242115E-01
3.750000E-01 7.500000E-01 -1.537887E-01
3.750000E-01 8.125000E-01 -1.819103E-01
2.875000E-01 7.875000E-01 -2.790489E-01
3.312500E-01 7.937500E-01 -2.292615E-01
3.375000E-01 8.375000E-01 -2.440032E-01
2.937500E-01 8.312500E-01 -3.002829E-01
4.375000E-01 7.500000E-01 -7.800440E-02
5.000000E-01 7.500000E-01 -2.072024E-05
5.000000E-01 8.125000E-01 2.027646E-04
4.125000E-01 7.875000E-01 -1.222184E-01
4.562500E-01 7.937500E-01 -6.090077E-02
4.625000E-01 8.375000E-01 -5.737791E-02
4.187500E-01 8.312500E-01 -1.262082E-01
0.000000E+00 6.250000E-01 -2.177966E-01
6.250000E-02 6.250000E-01 -2.158086E-01
1.250000E-01 6.250000E-01 -2.024335E-01
1.250000E-01 6.875000E-01 -2.945310E-01
0.000000E+00 6.875000E-01 -3.196155E-01
3.750000E-02 6.625000E-01 -2.784176E-01
8.125000E-02 6.687500E-01 -2.798597E-01
8.750000E-02 7.125000E-01 -3.433805E-01
4.375000E-02 7.062500E-01 -3.449726E-01
1.875000E-01 6.250000E-01 -1.819103E-01
2.500000E-01 6.250000E-01 -1.537887E-01
2.500000E-01 6.875000E-01 -2.242115E-01
1.625000E-01 6.625000E-01 -2.440032E-01
2.062500E-01 6.687500E-01 -2.292615E-01
2.125000E-01 7.125000E-01 -2.790489E-01
1.687500E-01 7.062500E-01 -3.002829E-01
0.000000E+00 5.000000E-01 2.266006E-03
6.250000E-02 5.000000E-01 3.188910E-04
1.250000E-01 5.000000E-01 1.397092E-04
1.250000E-01 5.625000E-01 -1.030849E-01
0.000000E+00 5.625000E-01 -1.124688E-01
3.750000E-02 5.375000E-01 -6.563624E-02
8.125000E-02 5.437500E-01 -7.446997E-02
8.750000E-02 5.875000E-01 -1.513307E-01
4.375000E-02 5.812500E-01 -1.454751E-01
1.875000E-01 5.000000E-01 2.027646E-04
2.500000E-01 5.000000E-01 -2.072024E-05
2.500000E-01 5.625000E-01 -7.800440E-02
1.625000E-01 5.375000E-01 -5.737791E-02
2.062500E-01 5.437500E-01 -6.090077E-02
2.125000E-01 5.875000E-01 -1.222184E-01
1.687500E-01 5.812500E-01 -1.262082E-01
3.125000E-01 6.250000E-01 -1.201356E-01
3.750000E-01 6.250000E-01 -8.236582E-02
3.750000E-01 6.875000E-01 -1.201356E-01
2.875000E-01 6.625000E-01 -1.718627E-01
3.312500E-01 6.687500E-01 -1.437034E-01
3.375000E-01 7.125000E-01 -1.718627E-01
2.937500E-01 7.062500E-01 -2.092609E-01
4.375000E-01 6.250000E-01 -4.153763E-02
5.000000E-01 6.250000E-01 -5.674712E-05
5.000000E-01 6.875000E-01 2.351102E-04
4.125000E-01 6.625000E-01 -7.476389E-02
4.562500E-01 6.687500E-01 -3.811485E-02
4.625000E-01 7.125000E-01 -4.019457E-02
4.187500E-01 7.062500E-01 -8.747813E-02
3.125000E-01 5.000000E-01 2.351102E-04
3.750000E-01 5.000000E-01 -5.674712E-05
3.750000E-01 5.625000E-01 -4.153763E-02
2.875000E-01 5.375000E-01 -4.019457E-02
3.312500E-01 5.437500E-01 -3.811485E-02
3.375000E-01 5.875000E-01 -7.476389E-02
2.937500E-01 5.812500E-01 -8.747813E-02
4.375000E-01 5.000000E-01 3.180846E-04
5.000000E-01 5.000000E-01 -5.436683E-05
5.000000E-01 5.625000E-01 3.180846E-04
4.125000E-01 5.375000E-01 -1.730416E-02
4.562500E-01 5.437500E-01 -1.019090E-02
4.625000E-01 5.875000E-01 -1.730416E-02
4.187500E-01 5.812500E-01 -3.650202E-02
5.625000E-01 8.750000E-01 1.038525E-01
6.250000E-01 8.750000E-01 2.029021E-01
6.250000E-01 9.375000E-01 2.165820E-01
6.250000E-01 1.000000E+00 2.221386E-01
5.625000E-01 1.000000E+00 1.123911E-01
5.375000E-01 9.125000E-01 6.419427E-02
5.812500E-01 9.187500E-01 1.423885E-01
5.875000E-01 9.625000E-01 1.573745E-01
5.437500E-01 9.562500E-01 7.697368E-02
6.875000E-01 8.750000E-01 2.955217E-01
7.500000E-01 8.750000E-01 3.744338E-01
7.500000E-01 9.375000E-01 3.985742E-01
7.500000E-01 1.000000E+00 4.065356E-01
6.875000E-01 1.000000E+00 3.198801E-01
6.625000E-01 9.125000E-01 2.702690E-01
7.062500E-01 9.187500E-01 3.374280E-01
7.125000E-01 9.625000E-01 3.557819E-01
6.687500E-01 9.562500E-01 2.877504E-01
5.625000E-01 7.500000E-01 7.871557E-02
6.250000E-01 7.500000E-01 1.539373E-01
6.250000E-01 8.125000E-01 1.824875E-01
5.375000E-01 7.875000E-01 5.184785E-02
5.812500E-01 7.937500E-01 1.159527E-01
5.875000E-01 8.375000E-01 1.375133E-01
5.437500E-01 8.312500E-01 6.640578E-02
6.875000E-01 7.500000E-01 2.250746E-01
7.500000E-01 7.500000E-01 2.861813E-01
7.500000E-01 8.125000E-01 3.378849E-01
6.625000E-01 7.875000E-01 2.191031E-01
7.062500E-01 7.937500E-01 2.766833E-01
7.125000E-01 8.375000E-01 3.123636E-01
6.687500E-01 8.312500E-01 2.498390E-01
8.125000E-01 8.750000E-01 4.403893E-01
8.750000E-01 8.750000E-01 4.867707E-01
8.750000E-01 9.375000E-01 5.171590E-01
8.750000E-01 1.000000E+00 5.262819E-01
8.125000E-01 1.000000E+00 4.755952E-01
7.875000E-01 9.125000E-01 4.332314E-01
8.312500E-01 9.187500E-01 4.782924E-01
8.375000E-01 9.625000E-01 4.967902E-01
7.937500E-01 9.562500E-01 4.520810E-01
9.375000E-01 8.750000E-01 5.171590E-01
1.000000E+00 8.750000E-01 5.262819E-01
1.000000E+00 9.375000E-01 5.579723E-01
1.000000E+00 1.000000E+00 5.674760E-01
9.375000E-01 1.000000E+00 5.579723E-01
9.125000E-01 9.125000E-01 5.284311E-01
9.562500E-01 9.187500E-01 5.459598E-01
9.625000E-01 9.625000E-01 5.621733E-01
9.187500E-01 9.562500E-01 5.459598E-01
8.125000E-01 7.500000E-01 3.378849E-01
8.750000E-01 7.500000E-01 3.744338E-01
8.750000E-01 8.125000E-01 4.403893E-01
7.875000E-01 7.875000E-01 3.536362E-01
8.312500E-01 7.937500E-01 3.948075E-01
8.375000E-01 8.375000E-01 4.381553E-01
7.937500E-01 8.312500E-01 3.948075E-01
9.375000E-01 7.500000E-01 3.985742E-01
1.000000E+00 7.500000E-01 4.065356E-01
1.000000E+00 8.125000E-01 4.755952E-01
9.125000E-01 7.875000E-01 4.332314E-01
9.562500E-01 7.937500E-01 4.520810E-01
9.625000E-01 8.375000E-01 4.967902E-01
9.187500E-01 8.312500E-01 4.782924E-01
5.625000E-01 6.250000E-01 4.220908E-02
6.250000E-01 6.250000E-01 8.233217E-02
6.250000E-01 6.875000E-01 1.207556E-01
5.375000E-01 6.625000E-01 3.190458E-02
5.812500E-01 6.687500E-01 7.226552E-02
5.875000E-01 7.125000E-01 9.663659E-02
5.437500E-01 7.062500E-01 4.582131E-02
6.875000E-01 6.250000E-01 1.207556E-01
7.500000E-01 6.250000E-01 1.539373E-01
7.500000E-01 6.875000E-01 2.250746E-01
6.625000E-01 6.625000E-01 1.347731E-01
7.062500E-01 6.687500E-01 1.735600E-01
7.125000E-01 7.125000E-01 2.208592E-01
6.687500E-01 7.062500E-01 1.735600E-01
5.625000E-01 5.000000E-01 3.180846E-04
6.250000E-01 5.000000E-01 -5.674712E-05
6.250000E-01 5.625000E-01 4.220908E-02
5.375000E-01 5.375000E-01 7.772958E-03
5.812500E-01 5.437500E-01 1.897801E-02
5.875000E-01 5.875000E-01 4.225101E-02
5.437500E-01 5.812500E-01 1.897801E-02
6.875000E-01 5.000000E-01 2.351102E-04
7.500000E-01 5.000000E-01 -2.072024E-05
7.500000E-01 5.625000E-01 7.871557E-02
6.625000E-01 5.375000E-01 3.190458E-02
7.062500E-01 5.437500E-01 4.582131E-02
7.125000E-01 5.875000E-01 9.663659E-02
6.687500E-01 5.812500E-01 7.226552E-02
8.125000E-01 6.250000E-01 1.824875E-01
8.750000E-01 6.250000E-01 2.029021E-01
8.750000E-01 6.875000E-01 2.955217E-01
7.875000E-01 6.625000E-01 2.191031E-01
8.312500E-01 6.687500E-01 2.498390E-01
8.375000E-01 7.125000E-01 3.123636E-01
7.937500E-01 7.062500E-01 2.766833E-01
9.375000E-01 6.250000E-01 2.165820E-01
1.000000E+00 6.250000E-01 2.221386E-01
1.000000E+00 6.875000E-01 3.198801E-01
9.125000E-01 6.625000E-01 2.702690E-01
9.562500E-01 6.687500E-01 2.877504E-01
9.625000E-01 7.125000E-01 3.557819E-01
9.187500E-01 7.062500E-01 3.374280E-01
8.125000E-01 5.000000E-01 2.027646E-04
8.750000E-01 5.000000E-01 1.397092E-04
8.750000E-01 5.625000E-01 1.038525E-01
7.875000E-01 5.375000E-01 5.184785E-02
8.312500E-01 5.437500E-01 6.640578E-02
8.375000E-01 5.875000E-01 1.375133E-01
7.937500E-01 5.812500E-01 1.159527E-01
9.375000E-01 5.000000E-01 3.188910E-04
1.000000E+00 5.000000E-01 2.266006E-03
1.000000E+00 5.625000E-01 1.123911E-01
9.125000E-01 5.375000E-01 6.419427E-02
9.562500E-01 5.437500E-01 7.697368E-02
9.625000E-01 5.875000E-01 1.573745E-01
9.187500E-01 5.812500E-01 1.423885E-01
0.000000E+00 3.750000E-01 2.221386E-01
6.250000E-02 3.750000E-01 2.165820E-01
[...]
CELL_DATA 896
SCALARS sol float 1
LOOKUP_TABLE default
-5.330422E-01
-5.349539E-01
-5.467564E-01
-5.144224E-01
-5.487778E-01
-5.164817E-01
-5.568959E-01
-5.005431E-01
-4.983287E-01
-5.487778E-01
-5.164817E-01
-4.986728E-01
-5.655177E-01
-4.734270E-01
-4.733073E-01
-5.568959E-01
-5.349539E-01
-4.986728E-01
-4.727748E-01
-5.655177E-01
-4.621990E-01
-4.460353E-01
-4.571849E-01
-5.467564E-01
-5.330422E-01
-4.727748E-01
-4.983287E-01
-4.548104E-01
-4.319490E-01
-4.202094E-01
-4.223300E-01
-5.144224E-01
-4.571849E-01
-4.548104E-01
-4.733073E-01
-4.226575E-01
-4.081643E-01
-3.857667E-01
-4.059943E-01
-5.005431E-01
-4.223300E-01
-4.226575E-01
-4.621990E-01
-3.972786E-01
-3.751839E-01
-3.594146E-01
-3.641840E-01
-3.717333E-01
-4.734270E-01
-4.081643E-01
-4.059943E-01
-3.972786E-01
-4.319490E-01
-3.678003E-01
-3.401252E-01
-3.167546E-01
-3.250774E-01
-3.396503E-01
-4.460353E-01
-3.751839E-01
-3.717333E-01
-3.678003E-01
-4.202094E-01
-3.320833E-01
-3.086602E-01
-3.256090E-01
-3.039120E-01
-2.752916E-01
-3.071313E-01
-3.401252E-01
-3.641840E-01
-3.396503E-01
-3.320833E-01
-3.857667E-01
-3.037513E-01
-2.620033E-01
-2.814892E-01
-2.609403E-01
-2.405707E-01
-2.710364E-01
-3.086602E-01
-3.256090E-01
-3.250774E-01
-3.071313E-01
-3.037513E-01
-3.594146E-01
-2.655616E-01
-2.352507E-01
-2.495582E-01
-2.596790E-01
-1.951780E-01
-2.464403E-01
-2.620033E-01
-2.814892E-01
-3.039120E-01
-2.710364E-01
-2.655616E-01
-3.167546E-01
-2.412386E-01
-1.917223E-01
-2.119623E-01
-2.209223E-01
-1.601461E-01
-1.714034E-01
-2.045871E-01
-2.352507E-01
-2.495582E-01
-2.596790E-01
-2.609403E-01
-2.464403E-01
-2.412386E-01
-2.752916E-01
-2.026705E-01
-1.532484E-01
-1.709942E-01
-1.900896E-01
-1.084960E-01
-1.242727E-01
-1.852475E-01
-1.917223E-01
-2.119623E-01
-2.209223E-01
-2.405707E-01
-2.045871E-01
-2.026705E-01
-1.754917E-01
-1.447289E-01
-1.105554E-01
-1.437679E-01
-1.542263E-01
-9.624947E-02
-5.992219E-02
-1.503585E-01
-1.532484E-01
-1.714034E-01
-1.709942E-01
-1.900896E-01
-1.951780E-01
-1.852475E-01
-1.754917E-01
-1.468169E-01
-9.605224E-02
-6.005307E-02
-1.030979E-01
-1.187564E-01
-4.788991E-02
-2.209727E-02
-1.204675E-01
-1.105554E-01
-1.447289E-01
-1.242727E-01
-1.437679E-01
-1.542263E-01
-1.601461E-01
-1.503585E-01
-1.468169E-01
-1.162601E-01
-8.196703E-02
-5.412552E-02
-2.494331E-02
-8.769027E-02
-1.065770E-01
2.658132E-02
-9.412516E-02
-6.005307E-02
-9.605224E-02
-9.624947E-02
-1.030979E-01
-1.187564E-01
-1.084960E-01
-1.204675E-01
-1.162601E-01
-9.343906E-02
-4.054829E-02
-1.969919E-02
2.174675E-02
-4.681226E-02
-6.871122E-02
6.450216E-02
4.833143E-02
-6.634708E-02
-2.494331E-02
-5.412552E-02
-8.196703E-02
-4.788991E-02
-8.769027E-02
-1.065770E-01
-5.992219E-02
-9.412516E-02
-9.343906E-02
-6.683398E-02
-2.016616E-02
2.328968E-02
5.699469E-02
-3.996326E-02
-5.513188E-02
1.167965E-01
9.589313E-02
-5.191271E-02
2.174675E-02
-1.969919E-02
-4.054829E-02
-2.209727E-02
-4.681226E-02
-6.871122E-02
-6.634708E-02
-6.683398E-02
-5.293015E-02
1.740712E-02
5.790766E-02
4.043238E-02
1.044094E-01
-1.400635E-02
-2.684675E-02
1.264006E-01
1.647520E-01
-2.650929E-02
5.699469E-02
4.833143E-02
2.328968E-02
-2.016616E-02
2.658132E-02
-3.996326E-02
-5.513188E-02
-5.191271E-02
-5.293015E-02
-3.166467E-02
4.430508E-02
1.034683E-01
7.941173E-02
1.509269E-01
1.649565E-02
-1.229264E-02
1.725655E-01
1.998120E-01
-2.004722E-02
1.044094E-01
5.790766E-02
9.589313E-02
4.043238E-02
1.740712E-02
6.450216E-02
-1.400635E-02
-2.684675E-02
-2.650929E-02
-3.166467E-02
-2.075648E-02
4.257440E-02
8.298912E-02
1.074070E-01
1.491957E-01
1.892397E-01
2.666253E-02
1.070946E-02
2.445584E-01
-6.089048E-03
1.509269E-01
1.034683E-01
1.264006E-01
7.941173E-02
4.430508E-02
1.167965E-01
1.649565E-02
-1.229264E-02
-2.004722E-02
-2.075648E-02
-9.338627E-03
7.419008E-02
1.173511E-01
1.454935E-01
1.753879E-01
2.322447E-01
5.111741E-02
2.509035E-02
2.794320E-01
2.609496E-01
7.361594E-03
1.892397E-01
1.491957E-01
1.074070E-01
1.725655E-01
8.298912E-02
4.257440E-02
1.647520E-01
2.666253E-02
1.070946E-02
-6.089048E-03
-9.338627E-03
-2.692998E-03
7.216531E-02
1.104215E-01
1.526237E-01
2.146202E-01
2.591242E-01
4.936432E-02
2.132282E-02
3.240681E-01
3.015703E-01
9.338554E-03
2.322447E-01
1.753879E-01
1.454935E-01
1.998120E-01
1.173511E-01
7.419008E-02
5.111741E-02
2.509035E-02
7.361594E-03
-2.692998E-03
2.584264E-03
9.653416E-02
1.242490E-01
1.869735E-01
2.524777E-01
2.194044E-01
3.038117E-01
6.669239E-02
3.449053E-02
3.295401E-01
3.636332E-01
1.611070E-02
2.591242E-01
2.609496E-01
2.146202E-01
1.526237E-01
2.445584E-01
1.104215E-01
7.216531E-02
4.936432E-02
2.132282E-02
9.338554E-03
2.584264E-03
2.584264E-03
9.321572E-02
1.515983E-01
2.016708E-01
2.881149E-01
2.511717E-01
3.391328E-01
5.562970E-02
2.726088E-02
3.661010E-01
3.900417E-01
9.338554E-03
3.038117E-01
2.524777E-01
3.015703E-01
2.194044E-01
1.869735E-01
2.794320E-01
1.242490E-01
9.653416E-02
6.669239E-02
3.449053E-02
1.611070E-02
2.584264E-03
-2.692998E-03
1.137909E-01
1.866102E-01
1.445347E-01
2.426269E-01
2.816671E-01
3.303540E-01
3.740558E-01
5.562970E-02
3.449053E-02
4.232777E-01
7.361594E-03
3.391328E-01
2.881149E-01
3.295401E-01
2.511717E-01
2.016708E-01
3.240681E-01
1.515983E-01
9.321572E-02
5.562970E-02
2.726088E-02
9.338554E-03
-2.692998E-03
-9.338627E-03
1.137909E-01
2.075842E-01
1.624936E-01
2.656314E-01
3.106621E-01
3.443895E-01
4.061245E-01
6.669239E-02
2.132282E-02
4.491898E-01
4.318023E-01
-6.089048E-03
3.740558E-01
3.303540E-01
2.816671E-01
3.661010E-01
2.426269E-01
1.866102E-01
3.636332E-01
1.445347E-01
1.137909E-01
5.562970E-02
3.449053E-02
7.361594E-03
-9.338627E-03
-2.075648E-02
9.321572E-02
1.445347E-01
1.905453E-01
2.459337E-01
3.037939E-01
3.733210E-01
4.203590E-01
4.936432E-02
2.509035E-02
4.786657E-01
4.585666E-01
-2.004722E-02
4.061245E-01
3.443895E-01
3.106621E-01
3.900417E-01
2.656314E-01
2.075842E-01
1.624936E-01
1.137909E-01
6.669239E-02
2.132282E-02
-6.089048E-03
-2.075648E-02
-3.166467E-02
9.653416E-02
1.515983E-01
2.075842E-01
2.459337E-01
3.293662E-01
4.077334E-01
3.655218E-01
4.544891E-01
5.111741E-02
1.070946E-02
4.793151E-01
5.038182E-01
-2.650929E-02
4.203590E-01
4.318023E-01
3.733210E-01
3.037939E-01
4.232777E-01
2.459337E-01
1.905453E-01
1.445347E-01
9.321572E-02
4.936432E-02
2.509035E-02
-2.004722E-02
-3.166467E-02
-5.293015E-02
7.216531E-02
1.242490E-01
1.866102E-01
2.656314E-01
3.293662E-01
4.274231E-01
3.846612E-01
4.732132E-01
2.666253E-02
-1.229264E-02
5.007529E-01
5.177352E-01
-5.191271E-02
4.544891E-01
4.077334E-01
4.585666E-01
3.655218E-01
3.293662E-01
4.491898E-01
2.459337E-01
2.075842E-01
1.515983E-01
9.653416E-02
5.111741E-02
1.070946E-02
-2.650929E-02
-5.293015E-02
-6.683398E-02
7.419008E-02
1.104215E-01
2.016708E-01
3.037939E-01
2.426269E-01
3.655218E-01
4.122652E-01
4.590747E-01
4.990972E-01
1.649565E-02
-2.684675E-02
5.349238E-01
-6.634708E-02
4.732132E-01
4.274231E-01
4.793151E-01
3.846612E-01
3.293662E-01
4.786657E-01
2.656314E-01
1.866102E-01
1.242490E-01
7.216531E-02
2.666253E-02
-1.229264E-02
-5.191271E-02
-6.683398E-02
-9.343906E-02
4.257440E-02
1.173511E-01
1.869735E-01
3.106621E-01
2.511717E-01
3.733210E-01
4.274231E-01
4.590747E-01
5.156976E-01
-1.400635E-02
-5.513188E-02
5.486503E-01
5.347901E-01
-9.412516E-02
4.990972E-01
4.590747E-01
4.122652E-01
5.007529E-01
3.655218E-01
3.037939E-01
5.038182E-01
2.426269E-01
2.016708E-01
1.104215E-01
7.419008E-02
1.649565E-02
-2.684675E-02
-6.634708E-02
-9.343906E-02
-1.162601E-01
4.430508E-02
1.526237E-01
8.298912E-02
2.194044E-01
2.816671E-01
3.443895E-01
4.077334E-01
4.732132E-01
5.156976E-01
-3.996326E-02
-6.871122E-02
5.595115E-01
5.444937E-01
-1.204675E-01
5.156976E-01
4.590747E-01
4.274231E-01
5.177352E-01
3.733210E-01
3.106621E-01
2.511717E-01
1.869735E-01
1.173511E-01
4.257440E-02
-1.400635E-02
-5.513188E-02
-9.412516E-02
-1.162601E-01
-1.468169E-01
1.740712E-02
1.454935E-01
7.941173E-02
2.146202E-01
2.881149E-01
3.303540E-01
4.203590E-01
4.990972E-01
4.544891E-01
5.347901E-01
-4.681226E-02
-1.065770E-01
5.555079E-01
5.674760E-01
-1.503585E-01
5.156976E-01
5.347901E-01
4.732132E-01
4.077334E-01
5.349238E-01
3.443895E-01
2.816671E-01
2.194044E-01
1.526237E-01
8.298912E-02
4.430508E-02
-3.996326E-02
-6.871122E-02
-1.204675E-01
-1.468169E-01
-1.754917E-01
4.043238E-02
-2.016616E-02
1.074070E-01
1.753879E-01
2.524777E-01
3.391328E-01
4.061245E-01
5.007529E-01
4.585666E-01
5.349238E-01
-8.769027E-02
-1.187564E-01
5.595115E-01
5.674760E-01
-1.852475E-01
5.347901E-01
4.990972E-01
5.444937E-01
4.544891E-01
4.203590E-01
5.486503E-01
3.303540E-01
2.881149E-01
2.146202E-01
1.454935E-01
7.941173E-02
1.740712E-02
-4.681226E-02
-1.065770E-01
-1.503585E-01
-1.754917E-01
-2.026705E-01
2.328968E-02
-4.054829E-02
1.034683E-01
1.491957E-01
2.591242E-01
3.740558E-01
3.038117E-01
4.318023E-01
4.793151E-01
5.177352E-01
5.486503E-01
-1.030979E-01
-1.542263E-01
-2.045871E-01
5.349238E-01
5.007529E-01
5.555079E-01
4.585666E-01
4.061245E-01
5.595115E-01
3.391328E-01
2.524777E-01
1.753879E-01
1.074070E-01
4.043238E-02
-2.016616E-02
-8.769027E-02
-1.187564E-01
-1.852475E-01
-2.026705E-01
-2.412386E-01
5.790766E-02
-1.969919E-02
-8.196703E-02
1.509269E-01
2.322447E-01
3.661010E-01
3.015703E-01
4.232777E-01
4.786657E-01
5.038182E-01
-1.437679E-01
-1.900896E-01
-2.464403E-01
5.486503E-01
5.177352E-01
4.793151E-01
5.595115E-01
4.318023E-01
3.740558E-01
5.674760E-01
3.038117E-01
2.591242E-01
1.491957E-01
1.034683E-01
2.328968E-02
-4.054829E-02
-1.030979E-01
-1.542263E-01
-2.045871E-01
-2.412386E-01
-2.655616E-01
5.699469E-02
-5.412552E-02
-9.605224E-02
1.892397E-01
1.044094E-01
2.609496E-01
3.295401E-01
3.900417E-01
4.491898E-01
-1.709942E-01
-2.209223E-01
-2.710364E-01
5.038182E-01
4.786657E-01
5.674760E-01
4.232777E-01
3.661010E-01
3.015703E-01
2.322447E-01
1.509269E-01
5.790766E-02
-1.969919E-02
-8.196703E-02
-1.437679E-01
-1.900896E-01
-2.464403E-01
-2.655616E-01
-3.037513E-01
2.174675E-02
-6.005307E-02
-1.447289E-01
1.725655E-01
9.589313E-02
2.445584E-01
3.240681E-01
3.636332E-01
-2.119623E-01
-2.596790E-01
-3.071313E-01
4.491898E-01
3.900417E-01
3.295401E-01
2.609496E-01
1.892397E-01
1.044094E-01
5.699469E-02
-5.412552E-02
-9.605224E-02
-1.709942E-01
-2.209223E-01
-2.710364E-01
-3.037513E-01
-3.320833E-01
4.833143E-02
-2.494331E-02
-1.105554E-01
-1.532484E-01
1.264006E-01
1.998120E-01
2.794320E-01
-2.495582E-01
-2.814892E-01
-3.396503E-01
3.636332E-01
3.240681E-01
2.445584E-01
1.725655E-01
9.589313E-02
2.174675E-02
-6.005307E-02
-1.447289E-01
-2.119623E-01
-2.596790E-01
-3.071313E-01
-3.320833E-01
-3.678003E-01
2.658132E-02
-4.788991E-02
-1.242727E-01
-1.917223E-01
1.167965E-01
1.647520E-01
-2.620033E-01
-3.256090E-01
-3.717333E-01
2.794320E-01
1.998120E-01
1.264006E-01
4.833143E-02
-2.494331E-02
-1.105554E-01
-1.532484E-01
-2.495582E-01
-2.814892E-01
-3.396503E-01
-3.678003E-01
-3.972786E-01
6.450216E-02
-2.209727E-02
-9.624947E-02
-1.714034E-01
-2.352507E-01
-3.086602E-01
-3.401252E-01
-4.059943E-01
1.647520E-01
1.167965E-01
2.658132E-02
-4.788991E-02
-1.242727E-01
-1.917223E-01
-2.620033E-01
-3.256090E-01
-3.717333E-01
-3.972786E-01
-4.226575E-01
-5.992219E-02
-1.084960E-01
-1.951780E-01
-2.609403E-01
-3.250774E-01
-3.751839E-01
-4.223300E-01
6.450216E-02
-2.209727E-02
-9.624947E-02
-1.714034E-01
-2.352507E-01
-3.086602E-01
-3.401252E-01
-4.059943E-01
-4.226575E-01
-4.548104E-01
-1.601461E-01
-2.405707E-01
-3.039120E-01
-3.641840E-01
-4.081643E-01
-4.571849E-01
-5.992219E-02
-1.084960E-01
-1.951780E-01
-2.609403E-01
-3.250774E-01
-3.751839E-01
-4.223300E-01
-4.548104E-01
-4.727748E-01
-2.752916E-01
-3.167546E-01
-3.857667E-01
-4.319490E-01
-4.733073E-01
-1.601461E-01
-2.405707E-01
-3.039120E-01
-3.641840E-01
-4.081643E-01
-4.571849E-01
-4.727748E-01
-4.986728E-01
-3.594146E-01
-4.202094E-01
-4.621990E-01
-4.983287E-01
-2.752916E-01
-3.167546E-01
-3.857667E-01
-4.319490E-01
-4.733073E-01
-4.986728E-01
-5.164817E-01
-4.460353E-01
-4.734270E-01
-5.144224E-01
-3.594146E-01
-4.202094E-01
-4.621990E-01
-4.983287E-01
-5.164817E-01
-5.349539E-01
-5.005431E-01
-5.330422E-01
-4.460353E-01
-4.734270E-01
-5.144224E-01
-5.349539E-01
-5.487778E-01
-5.467564E-01
-5.005431E-01
-5.330422E-01
-5.487778E-01
-5.568959E-01
-5.467564E-01
-5.568959E-01
-5.655177E-01
-5.655177E-01
