# vtk DataFile Version 2.0
Grille
ASCII
DATASET POLYDATA
POINTS 28929 float
0.000000E+00 9.843750E-01 -7.840003E-01
7.812500E-03 9.843750E-01 -7.838120E-01
1.562500E-02 9.843750E-01 -7.830745E-01
1.562500E-02 9.921875E-01 -7.838120E-01
1.562500E-02 1.000000E+00 -7.840003E-01
7.812500E-03 1.000000E+00 -7.847566E-01
0.000000E+00 1.000000E+00 -7.849507E-01
0.000000E+00 9.921875E-01 -7.847566E-01
4.687500E-03 9.890625E-01 -7.844591E-01
1.015625E-02 9.898438E-01 -7.841826E-01
1.093750E-02 9.953125E-01 -7.844591E-01
5.468750E-03 9.945312E-01 -7.847750E-01
2.343750E-02 9.843750E-01 -7.819293E-01
3.125000E-02 9.843750E-01 -7.802519E-01
3.125000E-02 9.921875E-01 -7.809867E-01
3.125000E-02 1.000000E+00 -7.811586E-01
2.343750E-02 1.000000E+00 -7.828756E-01
2.031250E-02 9.890625E-01 -7.829627E-01
2.578125E-02 9.898438E-01 -7.820028E-01
2.656250E-02 9.953125E-01 -7.821868E-01
2.109375E-02 9.945312E-01 -7.831861E-01
0.000000E+00 9.687500E-01 -7.811586E-01
7.812500E-03 9.687500E-01 -7.809867E-01
1.562500E-02 9.687500E-01 -7.802519E-01
1.562500E-02 9.765625E-01 -7.819293E-01
0.000000E+00 9.765625E-01 -7.828756E-01
4.687500E-03 9.734375E-01 -7.821868E-01
1.015625E-02 9.742188E-01 -7.820028E-01
1.093750E-02 9.796875E-01 -7.829627E-01
5.468750E-03 9.789062E-01 -7.831861E-01
2.343750E-02 9.687500E-01 -7.791108E-01
3.125000E-02 9.687500E-01 -7.774394E-01
3.125000E-02 9.765625E-01 -7.791108E-01
2.031250E-02 9.734375E-01 -7.806947E-01
2.578125E-02 9.742188E-01 -7.798291E-01
2.656250E-02 9.796875E-01 -7.806947E-01
2.109375E-02 9.789062E-01 -7.816006E-01
3.906250E-02 9.843750E-01 -7.781681E-01
4.687500E-02 9.843750E-01 -7.755548E-01
4.687500E-02 9.921875E-01 -7.762853E-01
4.687500E-02 1.000000E+00 -7.764403E-01
3.906250E-02 1.000000E+00 -7.791139E-01
3.593750E-02 9.890625E-01 -7.795854E-01
4.140625E-02 9.898438E-01 -7.779444E-01
4.218750E-02 9.953125E-01 -7.780355E-01
3.671875E-02 9.945312E-01 -7.797160E-01
5.468750E-02 9.843750E-01 -7.725375E-01
6.250000E-02 9.843750E-01 -7.689943E-01
6.250000E-02 9.921875E-01 -7.697186E-01
6.250000E-02 1.000000E+00 -7.698564E-01
5.468750E-02 1.000000E+00 -7.734805E-01
5.156250E-02 9.890625E-01 -7.743353E-01
5.703125E-02 9.898438E-01 -7.720171E-01
5.781250E-02 9.953125E-01 -7.720149E-01
5.234375E-02 9.945312E-01 -7.743726E-01
3.906250E-02 9.687500E-01 -7.753632E-01
4.687500E-02 9.687500E-01 -7.727593E-01
4.687500E-02 9.765625E-01 -7.744206E-01
3.593750E-02 9.734375E-01 -7.773273E-01
4.140625E-02 9.742188E-01 -7.757820E-01
4.218750E-02 9.796875E-01 -7.765513E-01
3.671875E-02 9.789062E-01 -7.781374E-01
5.468750E-02 9.687500E-01 -7.697526E-01
6.250000E-02 9.687500E-01 -7.662223E-01
6.250000E-02 9.765625E-01 -7.678697E-01
5.156250E-02 9.734375E-01 -7.720923E-01
5.703125E-02 9.742188E-01 -7.698710E-01
5.781250E-02 9.796875E-01 -7.705421E-01
5.234375E-02 9.789062E-01 -7.728048E-01
0.000000E+00 9.531250E-01 -7.764403E-01
7.812500E-03 9.531250E-01 -7.762853E-01
1.562500E-02 9.531250E-01 -7.755548E-01
1.562500E-02 9.609375E-01 -7.781681E-01
0.000000E+00 9.609375E-01 -7.791139E-01
4.687500E-03 9.578125E-01 -7.780355E-01
1.015625E-02 9.585938E-01 -7.779444E-01
1.093750E-02 9.640625E-01 -7.795854E-01
5.468750E-03 9.632812E-01 -7.797160E-01
2.343750E-02 9.531250E-01 -7.744206E-01
3.125000E-02 9.531250E-01 -7.727593E-01
3.125000E-02 9.609375E-01 -7.753632E-01
2.031250E-02 9.578125E-01 -7.765513E-01
2.578125E-02 9.585938E-01 -7.757820E-01
2.656250E-02 9.640625E-01 -7.773273E-01
2.109375E-02 9.632812E-01 -7.781374E-01
0.000000E+00 9.375000E-01 -7.698564E-01
7.812500E-03 9.375000E-01 -7.697186E-01
1.562500E-02 9.375000E-01 -7.689943E-01
1.562500E-02 9.453125E-01 -7.725375E-01
0.000000E+00 9.453125E-01 -7.734805E-01
4.687500E-03 9.421875E-01 -7.720149E-01
1.015625E-02 9.429688E-01 -7.720171E-01
1.093750E-02 9.484375E-01 -7.743353E-01
5.468750E-03 9.476562E-01 -7.743726E-01
2.343750E-02 9.375000E-01 -7.678697E-01
3.125000E-02 9.375000E-01 -7.662223E-01
3.125000E-02 9.453125E-01 -7.697526E-01
2.031250E-02 9.421875E-01 -7.705421E-01
2.578125E-02 9.429688E-01 -7.698710E-01
2.656250E-02 9.484375E-01 -7.720923E-01
2.109375E-02 9.476562E-01 -7.728048E-01
3.906250E-02 9.531250E-01 -7.706954E-01
4.687500E-02 9.531250E-01 -7.681072E-01
4.687500E-02 9.609375E-01 -7.706954E-01
3.593750E-02 9.578125E-01 -7.732016E-01
4.140625E-02 9.585938E-01 -7.717557E-01
4.218750E-02 9.640625E-01 -7.732016E-01
3.671875E-02 9.632812E-01 -7.746895E-01
5.468750E-02 9.531250E-01 -7.651184E-01
6.250000E-02 9.531250E-01 -7.616093E-01
6.250000E-02 9.609375E-01 -7.641758E-01
5.156250E-02 9.578125E-01 -7.679943E-01
5.703125E-02 9.585938E-01 -7.658752E-01
5.781250E-02 9.640625E-01 -7.672182E-01
5.234375E-02 9.632812E-01 -7.693804E-01
3.906250E-02 9.375000E-01 -7.641758E-01
4.687500E-02 9.375000E-01 -7.616093E-01
4.687500E-02 9.453125E-01 -7.651184E-01
3.593750E-02 9.421875E-01 -7.672182E-01
4.140625E-02 9.429688E-01 -7.658752E-01
4.218750E-02 9.484375E-01 -7.679943E-01
3.671875E-02 9.476562E-01 -7.693804E-01
5.468750E-02 9.375000E-01 -7.586457E-01
6.250000E-02 9.375000E-01 -7.551660E-01
6.250000E-02 9.453125E-01 -7.586457E-01
5.156250E-02 9.421875E-01 -7.620508E-01
5.703125E-02 9.429688E-01 -7.600391E-01
5.781250E-02 9.484375E-01 -7.620508E-01
5.234375E-02 9.476562E-01 -7.641073E-01
7.031250E-02 9.843750E-01 -7.650504E-01
7.812500E-02 9.843750E-01 -7.605856E-01
7.812500E-02 9.921875E-01 -7.613021E-01
7.812500E-02 1.000000E+00 -7.614224E-01
7.031250E-02 1.000000E+00 -7.659885E-01
6.718750E-02 9.890625E-01 -7.672246E-01
7.265625E-02 9.898438E-01 -7.642346E-01
7.343750E-02 9.953125E-01 -7.641392E-01
6.796875E-02 9.945312E-01 -7.671686E-01
8.593750E-02 9.843750E-01 -7.557243E-01
9.375000E-02 9.843750E-01 -7.503483E-01
9.375000E-02 9.921875E-01 -7.510553E-01
9.375000E-02 1.000000E+00 -7.511577E-01
8.593750E-02 1.000000E+00 -7.566552E-01
8.281250E-02 9.890625E-01 -7.582699E-01
8.828125E-02 9.898438E-01 -7.546150E-01
8.906250E-02 9.953125E-01 -7.544265E-01
8.359375E-02 9.945312E-01 -7.581207E-01
7.031250E-02 9.687500E-01 -7.622923E-01
7.812500E-02 9.687500E-01 -7.578437E-01
7.812500E-02 9.765625E-01 -7.594733E-01
6.718750E-02 9.734375E-01 -7.650020E-01
7.265625E-02 9.742188E-01 -7.621099E-01
7.343750E-02 9.796875E-01 -7.626812E-01
6.796875E-02 9.789062E-01 -7.656153E-01
8.593750E-02 9.687500E-01 -7.529996E-01
9.375000E-02 9.687500E-01 -7.476430E-01
9.375000E-02 9.765625E-01 -7.492509E-01
8.281250E-02 9.734375E-01 -7.560731E-01
8.828125E-02 9.742188E-01 -7.525168E-01
8.906250E-02 9.796875E-01 -7.529869E-01
8.359375E-02 9.789062E-01 -7.565856E-01
1.015625E-01 9.843750E-01 -7.445808E-01
1.093750E-01 9.843750E-01 -7.383060E-01
1.093750E-01 9.921875E-01 -7.390019E-01
1.093750E-01 1.000000E+00 -7.390861E-01
1.015625E-01 1.000000E+00 -7.455024E-01
9.843750E-02 9.890625E-01 -7.474919E-01
1.039063E-01 9.898438E-01 -7.431806E-01
1.046875E-01 9.953125E-01 -7.428995E-01
9.921875E-02 9.945312E-01 -7.472499E-01
1.171875E-01 9.843750E-01 -7.316457E-01
1.250000E-01 9.843750E-01 -7.244866E-01
1.250000E-01 9.921875E-01 -7.251697E-01
1.250000E-01 1.000000E+00 -7.252355E-01
1.171875E-01 1.000000E+00 -7.325557E-01
1.140625E-01 9.890625E-01 -7.349156E-01
1.195313E-01 9.898438E-01 -7.299579E-01
1.203125E-01 9.953125E-01 -7.295847E-01
1.148437E-01 9.945312E-01 -7.345813E-01
1.015625E-01 9.687500E-01 -7.418959E-01
1.093750E-01 9.687500E-01 -7.356438E-01
1.093750E-01 9.765625E-01 -7.372262E-01
9.843750E-02 9.734375E-01 -7.453260E-01
1.039063E-01 9.742188E-01 -7.411139E-01
1.046875E-01 9.796875E-01 -7.414816E-01
9.921875E-02 9.789062E-01 -7.457367E-01
1.171875E-01 9.687500E-01 -7.290069E-01
1.250000E-01 9.687500E-01 -7.218736E-01
1.250000E-01 9.765625E-01 -7.234269E-01
1.140625E-01 9.734375E-01 -7.327857E-01
1.195313E-01 9.742188E-01 -7.279276E-01
1.203125E-01 9.796875E-01 -7.281919E-01
1.148437E-01 9.789062E-01 -7.330936E-01
7.031250E-02 9.531250E-01 -7.577027E-01
7.812500E-02 9.531250E-01 -7.532808E-01
7.812500E-02 9.609375E-01 -7.558195E-01
6.718750E-02 9.578125E-01 -7.609414E-01
7.265625E-02 9.585938E-01 -7.581541E-01
7.343750E-02 9.640625E-01 -7.593910E-01
6.796875E-02 9.632812E-01 -7.622224E-01
8.593750E-02 9.531250E-01 -7.484653E-01
9.375000E-02 9.531250E-01 -7.431410E-01
9.375000E-02 9.609375E-01 -7.456459E-01
8.281250E-02 9.578125E-01 -7.520593E-01
8.828125E-02 9.585938E-01 -7.486103E-01
8.906250E-02 9.640625E-01 -7.497381E-01
8.359375E-02 9.632812E-01 -7.532324E-01
7.031250E-02 9.375000E-01 -7.512921E-01
7.812500E-02 9.375000E-01 -7.469074E-01
7.812500E-02 9.453125E-01 -7.503493E-01
6.718750E-02 9.421875E-01 -7.550520E-01
7.265625E-02 9.429688E-01 -7.523762E-01
7.343750E-02 9.484375E-01 -7.542758E-01
6.796875E-02 9.476562E-01 -7.569979E-01
8.593750E-02 9.375000E-01 -7.421321E-01
9.375000E-02 9.375000E-01 -7.368526E-01
9.375000E-02 9.453125E-01 -7.402486E-01
8.281250E-02 9.421875E-01 -7.462381E-01
8.828125E-02 9.429688E-01 -7.429043E-01
8.906250E-02 9.484375E-01 -7.446873E-01
8.359375E-02 9.476562E-01 -7.480688E-01
1.015625E-01 9.531250E-01 -7.374278E-01
1.093750E-01 9.531250E-01 -7.312133E-01
1.093750E-01 9.609375E-01 -7.336785E-01
9.843750E-02 9.578125E-01 -7.413687E-01
1.039063E-01 9.585938E-01 -7.372659E-01
1.046875E-01 9.640625E-01 -7.382819E-01
9.921875E-02 9.632812E-01 -7.424310E-01
1.171875E-01 9.531250E-01 -7.246156E-01
1.250000E-01 9.531250E-01 -7.175252E-01
1.250000E-01 9.609375E-01 -7.199449E-01
1.140625E-01 9.578125E-01 -7.288943E-01
1.195313E-01 9.585938E-01 -7.241473E-01
1.203125E-01 9.640625E-01 -7.250488E-01
1.148437E-01 9.632812E-01 -7.298433E-01
1.015625E-01 9.375000E-01 -7.311870E-01
1.093750E-01 9.375000E-01 -7.250247E-01
1.093750E-01 9.453125E-01 -7.283669E-01
9.843750E-02 9.421875E-01 -7.356293E-01
1.039063E-01 9.429688E-01 -7.316455E-01
1.046875E-01 9.484375E-01 -7.333075E-01
9.921875E-02 9.476562E-01 -7.373407E-01
1.171875E-01 9.375000E-01 -7.184819E-01
1.250000E-01 9.375000E-01 -7.114512E-01
1.250000E-01 9.453125E-01 -7.147316E-01
1.140625E-01 9.421875E-01 -7.232504E-01
1.195313E-01 9.429688E-01 -7.186257E-01
1.203125E-01 9.484375E-01 -7.201626E-01
[...]
CELL_DATA 57344
SCALARS sol float 1
LOOKUP_TABLE default
-7.842127E-01
-7.842531E-01
-7.845270E-01
-7.837880E-01
-7.845705E-01
-7.838197E-01
-7.847559E-01
-7.834737E-01
-7.834049E-01
-7.845705E-01
-7.838197E-01
-7.833964E-01
-7.849507E-01
-7.828395E-01
-7.828116E-01
-7.847559E-01
-7.842531E-01
-7.833964E-01
-7.827686E-01
-7.849507E-01
-7.825602E-01
-7.822024E-01
-7.824008E-01
-7.845270E-01
-7.842127E-01
-7.827686E-01
-7.834049E-01
-7.823132E-01
-7.818350E-01
-7.815749E-01
-7.815287E-01
-7.837880E-01
-7.824008E-01
-7.823132E-01
-7.828116E-01
-7.814919E-01
-7.812145E-01
-7.807425E-01
-7.810752E-01
-7.834737E-01
-7.815287E-01
-7.814919E-01
-7.825602E-01
-7.808058E-01
-7.803841E-01
-7.801146E-01
-7.801721E-01
-7.801357E-01
-7.828395E-01
-7.812145E-01
-7.810752E-01
-7.808058E-01
-7.818350E-01
-7.799885E-01
-7.794441E-01
-7.790426E-01
-7.791722E-01
-7.792735E-01
-7.822024E-01
-7.803841E-01
-7.801357E-01
-7.799885E-01
-7.815749E-01
-7.789310E-01
-7.789592E-01
-7.786691E-01
-7.786701E-01
-7.779989E-01
-7.782669E-01
-7.794441E-01
-7.801721E-01
-7.792735E-01
-7.789310E-01
-7.807425E-01
-7.780719E-01
-7.777015E-01
-7.773602E-01
-7.775387E-01
-7.770595E-01
-7.771757E-01
-7.786691E-01
-7.789592E-01
-7.791722E-01
-7.782669E-01
-7.780719E-01
-7.801146E-01
-7.768224E-01
-7.769243E-01
-7.768777E-01
-7.767325E-01
-7.758215E-01
-7.762682E-01
-7.773602E-01
-7.777015E-01
-7.786701E-01
-7.771757E-01
-7.768224E-01
-7.790426E-01
-7.759324E-01
-7.757023E-01
-7.756287E-01
-7.754971E-01
-7.748814E-01
-7.750650E-01
-7.747763E-01
-7.767325E-01
-7.768777E-01
-7.769243E-01
-7.775387E-01
-7.762682E-01
-7.759324E-01
-7.779989E-01
-7.744921E-01
-7.744621E-01
-7.743616E-01
-7.742469E-01
-7.733742E-01
-7.736610E-01
-7.738905E-01
-7.754971E-01
-7.756287E-01
-7.757023E-01
-7.770595E-01
-7.747763E-01
-7.744921E-01
-7.733121E-01
-7.731995E-01
-7.737338E-01
-7.731722E-01
-7.730667E-01
-7.729093E-01
-7.719261E-01
-7.723345E-01
-7.742469E-01
-7.750650E-01
-7.743616E-01
-7.744621E-01
-7.758215E-01
-7.738905E-01
-7.733121E-01
-7.720024E-01
-7.716426E-01
-7.720428E-01
-7.716785E-01
-7.713240E-01
-7.713743E-01
-7.706772E-01
-7.710415E-01
-7.730667E-01
-7.737338E-01
-7.736610E-01
-7.731722E-01
-7.731995E-01
-7.748814E-01
-7.723345E-01
-7.720024E-01
-7.703311E-01
-7.706830E-01
-7.707272E-01
-7.711763E-01
-7.708134E-01
-7.703844E-01
-7.690363E-01
-7.694220E-01
-7.713240E-01
-7.720428E-01
-7.729093E-01
-7.716785E-01
-7.716426E-01
-7.733742E-01
-7.710415E-01
-7.703311E-01
-7.690441E-01
-7.687601E-01
-7.688565E-01
-7.695524E-01
-7.692582E-01
-7.687468E-01
-7.677862E-01
-7.680955E-01
-7.678419E-01
-7.703844E-01
-7.708134E-01
-7.711763E-01
-7.713743E-01
-7.706830E-01
-7.707272E-01
-7.719261E-01
-7.694220E-01
-7.690441E-01
-7.671846E-01
-7.681323E-01
-7.678495E-01
-7.675905E-01
-7.675892E-01
-7.671892E-01
-7.658476E-01
-7.662909E-01
-7.664476E-01
-7.687468E-01
-7.692582E-01
-7.695524E-01
-7.706772E-01
-7.687601E-01
-7.688565E-01
-7.678419E-01
-7.671846E-01
-7.658688E-01
-7.664692E-01
-7.659910E-01
-7.658816E-01
-7.666492E-01
-7.662198E-01
-7.656067E-01
-7.652913E-01
-7.639982E-01
-7.643492E-01
-7.671892E-01
-7.680955E-01
-7.675892E-01
-7.681323E-01
-7.690363E-01
-7.678495E-01
-7.675905E-01
-7.664476E-01
-7.658688E-01
-7.638229E-01
-7.646085E-01
-7.642978E-01
-7.640348E-01
-7.645289E-01
-7.643270E-01
-7.634343E-01
-7.633561E-01
-7.624428E-01
-7.630408E-01
-7.656067E-01
-7.666492E-01
-7.662909E-01
-7.662198E-01
-7.664692E-01
-7.677862E-01
-7.659910E-01
-7.658816E-01
-7.643492E-01
-7.638229E-01
-7.621603E-01
-7.632457E-01
-7.636700E-01
-7.625030E-01
-7.623499E-01
-7.635752E-01
-7.628967E-01
-7.621849E-01
-7.604029E-01
-7.608832E-01
-7.634343E-01
-7.645289E-01
-7.652913E-01
-7.643270E-01
-7.646085E-01
-7.658476E-01
-7.642978E-01
-7.640348E-01
-7.630408E-01
-7.621603E-01
-7.603705E-01
-7.608965E-01
-7.613733E-01
-7.605265E-01
-7.601909E-01
-7.615530E-01
-7.610389E-01
-7.601489E-01
-7.588457E-01
-7.592800E-01
-7.591699E-01
-7.621849E-01
-7.628967E-01
-7.635752E-01
-7.633561E-01
-7.632457E-01
-7.636700E-01
-7.639982E-01
-7.625030E-01
-7.623499E-01
-7.608832E-01
-7.603705E-01
-7.581014E-01
-7.599565E-01
-7.599630E-01
-7.600243E-01
-7.590509E-01
-7.588557E-01
-7.589718E-01
-7.582875E-01
-7.564801E-01
-7.570790E-01
-7.569538E-01
-7.601489E-01
-7.610389E-01
-7.615530E-01
-7.624428E-01
-7.608965E-01
-7.613733E-01
-7.605265E-01
-7.601909E-01
-7.591699E-01
-7.581014E-01
-7.563985E-01
-7.578967E-01
-7.578065E-01
-7.579201E-01
-7.565303E-01
-7.563882E-01
-7.577220E-01
-7.574257E-01
-7.563065E-01
-7.558339E-01
-7.542336E-01
-7.548984E-01
-7.582875E-01
-7.592800E-01
-7.589718E-01
-7.599565E-01
-7.604029E-01
-7.599630E-01
-7.600243E-01
-7.590509E-01
-7.588557E-01
-7.569538E-01
-7.563985E-01
-7.539466E-01
-7.557365E-01
-7.557170E-01
-7.559022E-01
-7.552033E-01
-7.546469E-01
-7.551773E-01
-7.551385E-01
-7.537094E-01
-7.535029E-01
-7.523754E-01
-7.530318E-01
-7.563065E-01
-7.577220E-01
-7.570790E-01
-7.574257E-01
-7.578967E-01
-7.588457E-01
-7.578065E-01
-7.579201E-01
-7.565303E-01
-7.563882E-01
-7.548984E-01
-7.539466E-01
-7.522177E-01
-7.539739E-01
-7.547772E-01
-7.537512E-01
-7.538233E-01
-7.527530E-01
-7.524658E-01
-7.541387E-01
-7.531459E-01
-7.521530E-01
-7.499412E-01
-7.503459E-01
-7.537094E-01
-7.551773E-01
-7.558339E-01
-7.551385E-01
-7.557365E-01
-7.564801E-01
-7.557170E-01
-7.559022E-01
-7.552033E-01
-7.546469E-01
-7.530318E-01
-7.522177E-01
-7.495852E-01
-7.512036E-01
-7.520598E-01
-7.513831E-01
-7.513697E-01
-7.506462E-01
-7.500313E-01
-7.517229E-01
-7.509900E-01
-7.497234E-01
-7.480805E-01
-7.486390E-01
-7.486288E-01
-7.521530E-01
-7.531459E-01
-7.541387E-01
-7.535029E-01
-7.539739E-01
-7.547772E-01
-7.542336E-01
-7.537512E-01
-7.538233E-01
-7.527530E-01
-7.524658E-01
-7.503459E-01
-7.495852E-01
-7.474557E-01
-7.499536E-01
-7.502493E-01
-7.506312E-01
-7.498294E-01
-7.500186E-01
-7.482651E-01
-7.479380E-01
-7.485297E-01
-7.475624E-01
-7.452934E-01
-7.460467E-01
-7.458899E-01
-7.497234E-01
-7.509900E-01
-7.517229E-01
-7.523754E-01
-7.512036E-01
-7.520598E-01
-7.513831E-01
-7.513697E-01
-7.506462E-01
-7.500313E-01
-7.486288E-01
-7.474557E-01
-7.452026E-01
-7.475020E-01
-7.478001E-01
-7.481365E-01
-7.468926E-01
-7.471350E-01
-7.458217E-01
-7.451972E-01
-7.469729E-01
-7.468105E-01
-7.451876E-01
-7.445589E-01
-7.426550E-01
-7.437712E-01
-7.475624E-01
-7.486390E-01
-7.485297E-01
-7.499536E-01
-7.499412E-01
-7.502493E-01
-7.506312E-01
-7.498294E-01
-7.500186E-01
-7.482651E-01
-7.479380E-01
-7.458899E-01
-7.452026E-01
-7.423576E-01
-7.450471E-01
-7.453191E-01
-7.459521E-01
-7.455500E-01
-7.453194E-01
-7.438827E-01
-7.434571E-01
-7.440096E-01
-7.441341E-01
-7.421717E-01
-7.418374E-01
-7.404983E-01
-7.409801E-01
-7.451876E-01
-7.469729E-01
-7.460467E-01
-7.468105E-01
-7.475020E-01
-7.480805E-01
-7.478001E-01
-7.481365E-01
-7.468926E-01
-7.471350E-01
-7.458217E-01
-7.451972E-01
-7.437712E-01
-7.423576E-01
-7.402545E-01
-7.440696E-01
-7.428889E-01
-7.431870E-01
-7.434840E-01
-7.428128E-01
-7.427519E-01
-7.407863E-01
-7.404143E-01
-7.428888E-01
-7.415836E-01
-7.403119E-01
-7.376755E-01
-7.384673E-01
-7.421717E-01
-7.440096E-01
-7.445589E-01
-7.441341E-01
-7.450471E-01
-7.452934E-01
-7.453191E-01
-7.459521E-01
-7.455500E-01
-7.453194E-01
-7.438827E-01
-7.434571E-01
-7.409801E-01
-7.402545E-01
-7.372332E-01
-7.409378E-01
-7.397040E-01
-7.404328E-01
-7.407414E-01
-7.403173E-01
-7.401577E-01
-7.390587E-01
-7.382158E-01
-7.400848E-01
-7.391346E-01
-7.374943E-01
-7.355156E-01
-7.361969E-01
-7.361475E-01
-7.403119E-01
-7.415836E-01
-7.428888E-01
-7.418374E-01
-7.428889E-01
-7.440696E-01
-7.426550E-01
-7.431870E-01
-7.434840E-01
-7.428128E-01
-7.427519E-01
-7.407863E-01
-7.404143E-01
-7.384673E-01
-7.372332E-01
-7.351079E-01
-7.394329E-01
-7.387310E-01
-7.381468E-01
-7.388046E-01
-7.393778E-01
-7.377769E-01
-7.376788E-01
-7.360396E-01
-7.355815E-01
-7.362868E-01
-7.350387E-01
-7.323136E-01
-7.332195E-01
-7.328986E-01
-7.374943E-01
-7.391346E-01
-7.400848E-01
-7.404983E-01
-7.397040E-01
-7.409378E-01
-7.404328E-01
-7.407414E-01
-7.403173E-01
-7.401577E-01
-7.390587E-01
-7.382158E-01
-7.361475E-01
-7.351079E-01
-7.319132E-01
-7.365534E-01
-7.359947E-01
-7.353089E-01
-7.354584E-01
-7.360849E-01
-7.349513E-01
-7.346553E-01
-7.335358E-01
-7.325838E-01
-7.344266E-01
-7.343986E-01
-7.322757E-01
-7.314925E-01
-7.292891E-01
-7.307904E-01
-7.350387E-01
-7.361969E-01
-7.362868E-01
-7.381468E-01
-7.376755E-01
-7.387310E-01
-7.394329E-01
-7.388046E-01
-7.393778E-01
-7.377769E-01
-7.376788E-01
-7.360396E-01
-7.355815E-01
-7.328986E-01
-7.319132E-01
-7.293370E-01
-7.342075E-01
-7.331281E-01
-7.325650E-01
-7.341030E-01
-7.341993E-01
-7.329442E-01
-7.329084E-01
-7.305929E-01
-7.300997E-01
-7.310518E-01
-7.313394E-01
-7.288479E-01
-7.283866E-01
-7.268388E-01
-7.274962E-01
-7.322757E-01
-7.344266E-01
-7.332195E-01
-7.343986E-01
-7.353089E-01
-7.355156E-01
-7.359947E-01
-7.365534E-01
-7.354584E-01
-7.360849E-01
-7.349513E-01
-7.346553E-01
-7.335358E-01
-7.325838E-01
-7.307904E-01
-7.293370E-01
-7.266419E-01
-7.313560E-01
-7.315716E-01
-7.308347E-01
-7.300163E-01
-7.310855E-01
-7.312513E-01
-7.294446E-01
-7.294623E-01
-7.277026E-01
-7.268029E-01
-7.298513E-01
-7.282365E-01
-7.266891E-01
-7.236341E-01
-7.249904E-01
-7.288479E-01
-7.310518E-01
-7.314925E-01
-7.313394E-01
-7.325650E-01
-7.323136E-01
-7.331281E-01
-7.342075E-01
-7.341030E-01
-7.341993E-01
-7.329442E-01
-7.329084E-01
-7.305929E-01
-7.300997E-01
-7.274962E-01
-7.266419E-01
-7.232481E-01
-7.283306E-01
-7.280327E-01
-7.277009E-01
-7.264242E-01
-7.282071E-01
-7.285033E-01
-7.277104E-01
-7.272003E-01
-7.253215E-01
-7.246764E-01
-7.266655E-01
-7.255002E-01
-7.234899E-01
-7.211799E-01
-7.219825E-01
-7.216516E-01
-7.266891E-01
-7.282365E-01
-7.298513E-01
-7.283866E-01
-7.300163E-01
-7.315716E-01
-7.292891E-01
-7.308347E-01
-7.313560E-01
-7.310855E-01
-7.312513E-01
-7.294446E-01
-7.294623E-01
-7.277026E-01
-7.268029E-01
-7.249904E-01
-7.232481E-01
-7.207643E-01
-7.269579E-01
-7.260019E-01
-7.264553E-01
-7.254346E-01
-7.245632E-01
-7.255136E-01
-7.256446E-01
-7.244183E-01
-7.241907E-01
-7.216764E-01
-7.210854E-01
-7.222715E-01
-7.207454E-01
-7.175703E-01
-7.186270E-01
-7.187036E-01
-7.234899E-01
-7.255002E-01
-7.266655E-01
-7.268388E-01
-7.264242E-01
-7.280327E-01
-7.277009E-01
-7.283306E-01
-7.282071E-01
-7.285033E-01
-7.277104E-01
-7.272003E-01
-7.253215E-01
-7.246764E-01
-7.216516E-01
-7.207643E-01
-7.172022E-01
-7.232633E-01
-7.222540E-01
-7.231975E-01
-7.224177E-01
-7.213457E-01
-7.223124E-01
-7.223454E-01
-7.215353E-01
-7.210473E-01
-7.195678E-01
-7.184521E-01
-7.201122E-01
-7.202187E-01
-7.176006E-01
-7.166647E-01
-7.141666E-01
-7.159539E-01
-7.207454E-01
-7.219825E-01
-7.222715E-01
-7.245632E-01
-7.236341E-01
-7.254346E-01
-7.264553E-01
-7.260019E-01
-7.269579E-01
-7.255136E-01
-7.256446E-01
-7.244183E-01
-7.241907E-01
-7.216764E-01
-7.210854E-01
-7.187036E-01
-7.172022E-01
-7.147009E-01
-7.213123E-01
-7.208889E-01
-7.206956E-01
-7.191721E-01
-7.183191E-01
-7.202418E-01
-7.205961E-01
-7.184476E-01
-7.181880E-01
-7.160085E-01
-7.153879E-01
-7.163336E-01
-7.167838E-01
-7.137687E-01
-7.131815E-01
-7.114286E-01
-7.121720E-01
-7.176006E-01
-7.201122E-01
-7.186270E-01
-7.202187E-01
-7.213457E-01
-7.211799E-01
-7.224177E-01
-7.231975E-01
-7.222540E-01
-7.232633E-01
-7.223124E-01
-7.223454E-01
-7.215353E-01
-7.210473E-01
-7.195678E-01
-7.184521E-01
-7.159539E-01
-7.147009E-01
-7.109737E-01
-7.179905E-01
-7.175983E-01
-7.174671E-01
-7.173123E-01
-7.167229E-01
-7.153859E-01
-7.163471E-01
-7.167546E-01
-7.151867E-01
-7.146231E-01
-7.131280E-01
-7.118568E-01
-7.150563E-01
-7.131354E-01
-7.113158E-01
-7.078493E-01
-7.096940E-01
-7.137687E-01
-7.163336E-01
-7.166647E-01
-7.167838E-01
-7.183191E-01
-7.175703E-01
-7.191721E-01
-7.206956E-01
-7.208889E-01
-7.213123E-01
-7.202418E-01
-7.205961E-01
-7.184476E-01
-7.181880E-01
-7.160085E-01
-7.153879E-01
-7.121720E-01
-7.109737E-01
-7.079752E-01
-7.150950E-01
-7.143437E-01
-7.141660E-01
-7.133745E-01
-7.132168E-01
-7.113947E-01
-7.146101E-01
-7.144345E-01
-7.127495E-01
-7.125009E-01
-7.096532E-01
-7.090033E-01
-7.114960E-01
-7.101181E-01
-7.077424E-01
-7.051066E-01
-7.060287E-01
-7.058754E-01
-7.113158E-01
-7.131354E-01
-7.150563E-01
-7.131815E-01
-7.153859E-01
-7.173123E-01
-7.141666E-01
-7.167229E-01
-7.174671E-01
-7.175983E-01
-7.179905E-01
-7.163471E-01
-7.167546E-01
-7.151867E-01
-7.146231E-01
-7.131280E-01
-7.118568E-01
-7.096940E-01
-7.079752E-01
-7.048634E-01
-7.118632E-01
-7.127876E-01
-7.115034E-01
-7.114509E-01
-7.117283E-01
-7.103908E-01
-7.092343E-01
-7.110528E-01
-7.110565E-01
-7.087169E-01
-7.085218E-01
-7.063403E-01
-7.051816E-01
-7.065160E-01
-7.047154E-01
-7.010978E-01
-7.023028E-01
-7.030048E-01
-7.077424E-01
-7.101181E-01
-7.114960E-01
-7.114286E-01
-7.113947E-01
-7.133745E-01
-7.132168E-01
-7.141660E-01
-7.143437E-01
-7.150950E-01
-7.146101E-01
-7.144345E-01
-7.127495E-01
-7.125009E-01
-7.096532E-01
-7.090033E-01
-7.058754E-01
-7.048634E-01
-7.009531E-01
-7.082958E-01
-7.086999E-01
-7.079342E-01
-7.073100E-01
-7.080996E-01
-7.071004E-01
-7.056445E-01
-7.077973E-01
-7.077746E-01
-7.066125E-01
-7.058377E-01
-7.035423E-01
-7.026910E-01
-7.040625E-01
-7.043035E-01
-7.011961E-01
-7.001097E-01
-6.973226E-01
-6.991506E-01
-7.047154E-01
-7.060287E-01
-7.065160E-01
-7.092343E-01
-7.078493E-01
-7.103908E-01
-7.117283E-01
-7.114509E-01
-7.127876E-01
-7.115034E-01
-7.118632E-01
-7.110528E-01
-7.110565E-01
-7.087169E-01
-7.085218E-01
-7.063403E-01
-7.051816E-01
-7.030048E-01
-7.009531E-01
-6.981118E-01
-7.065485E-01
-7.058048E-01
-7.066882E-01
-7.059383E-01
-7.054475E-01
-7.034835E-01
-7.023423E-01
-7.045723E-01
-7.045467E-01
-7.027966E-01
-7.024115E-01
-6.993812E-01
-6.985840E-01
-6.998890E-01
-7.005010E-01
-6.969691E-01
-6.962573E-01
-6.943031E-01
-6.957938E-01
-7.011961E-01
-7.040625E-01
-7.023028E-01
-7.043035E-01
-7.056445E-01
-7.051066E-01
-7.071004E-01
-7.080996E-01
-7.073100E-01
-7.086999E-01
-7.079342E-01
-7.082958E-01
-7.077973E-01
-7.077746E-01
-7.066125E-01
-7.058377E-01
-7.035423E-01
-7.026910E-01
-6.991506E-01
-6.981118E-01
-6.940426E-01
-7.023206E-01
-7.015240E-01
-7.030001E-01
-7.023821E-01
-7.018495E-01
-7.013246E-01
-7.008842E-01
-6.990314E-01
-7.009484E-01
-7.007221E-01
-6.995481E-01
-6.987513E-01
-6.969145E-01
-6.955422E-01
-6.985381E-01
-6.963152E-01
-6.942277E-01
-6.903577E-01
-6.926417E-01
-6.969691E-01
-6.998890E-01
-7.001097E-01
-7.005010E-01
-7.023423E-01
-7.010978E-01
-7.034835E-01
-7.054475E-01
-7.059383E-01
-7.066882E-01
-7.058048E-01
-7.065485E-01
-7.045723E-01
-7.045467E-01
-7.027966E-01
-7.024115E-01
-6.993812E-01
-6.985840E-01
-6.957938E-01
-6.940426E-01
-6.911891E-01
-6.999480E-01
-6.997881E-01
-6.999640E-01
-6.987590E-01
-6.982804E-01
-6.969970E-01
-6.970139E-01
-6.946504E-01
-6.984607E-01
-6.986093E-01
-6.959456E-01
-6.955346E-01
-6.928485E-01
-6.920756E-01
-6.946113E-01
-6.930239E-01
-6.902883E-01
-6.873327E-01
-6.883722E-01
-6.883615E-01
-6.942277E-01
-6.963152E-01
-6.985381E-01
-6.962573E-01
-6.990314E-01
-7.013246E-01
-6.973226E-01
-7.008842E-01
-7.018495E-01
-7.023821E-01
-7.030001E-01
-7.015240E-01
-7.023206E-01
-7.009484E-01
-7.007221E-01
-6.995481E-01
-6.987513E-01
-6.969145E-01
-6.955422E-01
-6.926417E-01
-6.911891E-01
-6.869644E-01
-6.962093E-01
-6.959740E-01
-6.963663E-01
-6.968997E-01
-6.957787E-01
-6.951852E-01
-6.952860E-01
-6.936345E-01
-6.921956E-01
-6.940500E-01
-6.942515E-01
-6.922757E-01
-6.914621E-01
-6.896154E-01
-6.880460E-01
-6.890569E-01
-6.869858E-01
-6.829340E-01
-6.842846E-01
-6.855386E-01
-6.902883E-01
-6.930239E-01
-6.946113E-01
-6.943031E-01
-6.946504E-01
-6.969970E-01
-6.970139E-01
-6.982804E-01
-6.987590E-01
-6.999640E-01
-6.997881E-01
-6.999480E-01
-6.984607E-01
-6.986093E-01
-6.959456E-01
-6.955346E-01
-6.928485E-01
-6.920756E-01
-6.883615E-01
-6.869644E-01
-6.835719E-01
-6.927966E-01
-6.923537E-01
-6.925392E-01
-6.924284E-01
-6.918498E-01
-6.906609E-01
-6.912948E-01
-6.900781E-01
-6.882417E-01
-6.919545E-01
-6.915232E-01
-6.894358E-01
-6.889885E-01
-6.856435E-01
-6.848479E-01
-6.863149E-01
-6.866898E-01
-6.831003E-01
-6.818659E-01
-6.787961E-01
-6.812318E-01
-6.869858E-01
-6.883722E-01
-6.890569E-01
-6.921956E-01
-6.903577E-01
-6.936345E-01
-6.952860E-01
-6.951852E-01
-6.968997E-01
-6.957787E-01
-6.963663E-01
-6.959740E-01
-6.962093E-01
-6.940500E-01
-6.942515E-01
-6.922757E-01
-6.914621E-01
-6.896154E-01
-6.880460E-01
-6.855386E-01
-6.835719E-01
-6.800729E-01
-6.892074E-01
-6.907981E-01
-6.889990E-01
-6.896666E-01
-6.903609E-01
-6.892857E-01
-6.884986E-01
-6.860984E-01
-6.846716E-01
-6.878911E-01
-6.877427E-01
-6.849053E-01
-6.845113E-01
-6.819365E-01
-6.805375E-01
-6.817562E-01
-6.825286E-01
-6.784878E-01
-6.776530E-01
-6.755022E-01
-6.780222E-01
-6.831003E-01
-6.863149E-01
-6.842846E-01
-6.866898E-01
-6.882417E-01
-6.873327E-01
-6.900781E-01
-6.912948E-01
-6.906609E-01
-6.924284E-01
-6.918498E-01
-6.925392E-01
-6.923537E-01
-6.927966E-01
-6.919545E-01
-6.915232E-01
-6.894358E-01
-6.889885E-01
-6.856435E-01
-6.848479E-01
-6.812318E-01
-6.800729E-01
-6.756836E-01
-6.851319E-01
-6.861937E-01
-6.850207E-01
-6.850096E-01
-6.863150E-01
-6.854723E-01
-6.845394E-01
-6.836453E-01
-6.833551E-01
-6.809907E-01
-6.842824E-01
-6.839620E-01
-6.824556E-01
-6.814337E-01
-6.787511E-01
-6.777084E-01
-6.803348E-01
-6.778150E-01
-6.754643E-01
-6.711998E-01
-6.736899E-01
-6.784878E-01
-6.817562E-01
-6.818659E-01
-6.825286E-01
-6.846716E-01
-6.829340E-01
-6.860984E-01
-6.884986E-01
-6.892857E-01
-6.903609E-01
-6.896666E-01
-6.907981E-01
-6.889990E-01
-6.892074E-01
-6.878911E-01
-6.877427E-01
-6.849053E-01
-6.845113E-01
-6.819365E-01
-6.805375E-01
-6.780222E-01
-6.756836E-01
-6.725112E-01
-6.830340E-01
-6.824884E-01
-6.837743E-01
-6.832789E-01
-6.831452E-01
-6.814892E-01
-6.807106E-01
-6.789382E-01
-6.791299E-01
-6.762301E-01
-6.805609E-01
-6.803895E-01
-6.781519E-01
-6.776202E-01
-6.741112E-01
-6.731229E-01
-6.760507E-01
-6.742573E-01
-6.711682E-01
-6.678998E-01
-6.690542E-01
-6.699549E-01
-6.754643E-01
-6.778150E-01
-6.803348E-01
-6.776530E-01
-6.809907E-01
-6.836453E-01
-6.787961E-01
-6.833551E-01
-6.845394E-01
-6.854723E-01
-6.863150E-01
-6.850096E-01
-6.861937E-01
-6.850207E-01
-6.851319E-01
-6.842824E-01
-6.839620E-01
-6.824556E-01
-6.814337E-01
-6.787511E-01
-6.777084E-01
-6.736899E-01
-6.725112E-01
-6.679734E-01
-6.783076E-01
-6.777097E-01
-6.796835E-01
-6.792169E-01
-6.791899E-01
-6.793309E-01
-6.783760E-01
-6.772426E-01
-6.771664E-01
-6.752046E-01
-6.734865E-01
-6.765426E-01
-6.760758E-01
-6.745639E-01
-6.734807E-01
-6.713132E-01
-6.697031E-01
-6.699347E-01
-6.675978E-01
-6.631213E-01
-6.646145E-01
-6.664314E-01
-6.711682E-01
-6.742573E-01
-6.760507E-01
-6.755022E-01
-6.762301E-01
-6.789382E-01
-6.791299E-01
-6.807106E-01
-6.814892E-01
-6.831452E-01
-6.832789E-01
-6.837743E-01
-6.824884E-01
-6.830340E-01
-6.805609E-01
-6.803895E-01
-6.781519E-01
-6.776202E-01
-6.741112E-01
-6.731229E-01
-6.699549E-01
-6.679734E-01
-6.647955E-01
-6.755418E-01
-6.756280E-01
-6.761480E-01
-6.752403E-01
-6.751122E-01
-6.744865E-01
-6.740967E-01
-6.723454E-01
-6.728218E-01
-6.713905E-01
-6.691777E-01
-6.736673E-01
-6.736253E-01
-6.704839E-01
-6.699331E-01
-6.667791E-01
-6.658654E-01
-6.669106E-01
-6.674186E-01
-6.633552E-01
-6.619757E-01
-6.586303E-01
-6.616930E-01
-6.675978E-01
-6.690542E-01
-6.699347E-01
-6.734865E-01
-6.711998E-01
-6.752046E-01
-6.771664E-01
-6.772426E-01
-6.793309E-01
-6.783760E-01
-6.791899E-01
-6.792169E-01
-6.796835E-01
-6.777097E-01
-6.783076E-01
-6.765426E-01
-6.760758E-01
-6.745639E-01
-6.734807E-01
-6.713132E-01
-6.697031E-01
-6.664314E-01
-6.647955E-01
-6.601128E-01
-6.714157E-01
-6.713266E-01
-6.722058E-01
-6.733815E-01
-6.717640E-01
-6.718648E-01
-6.723681E-01
-6.709700E-01
-6.698882E-01
-6.670573E-01
-6.653481E-01
-6.687780E-01
-6.687885E-01
-6.664354E-01
-6.653916E-01
-6.632208E-01
-6.613771E-01
-6.619773E-01
-6.629084E-01
-6.583680E-01
-6.574123E-01
-6.550697E-01
-6.585534E-01
-6.633552E-01
-6.669106E-01
-6.646145E-01
-6.674186E-01
-6.691777E-01
-6.678998E-01
-6.713905E-01
-6.728218E-01
-6.723454E-01
-6.744865E-01
-6.740967E-01
-6.751122E-01