# vtk DataFile Version 2.0
Grille
ASCII
DATASET POLYDATA
POINTS 481 float
0.000000E+00 8.750000E-01 -8.864254E-01
6.250000E-02 8.750000E-01 -8.729458E-01
1.250000E-01 8.750000E-01 -8.200950E-01
1.250000E-01 9.375000E-01 -8.729458E-01
1.250000E-01 1.000000E+00 -8.864254E-01
6.250000E-02 1.000000E+00 -9.448034E-01
0.000000E+00 1.000000E+00 -9.598916E-01
0.000000E+00 9.375000E-01 -9.448034E-01
3.750000E-02 9.125000E-01 -9.219596E-01
8.125000E-02 9.187500E-01 -9.010856E-01
8.750000E-02 9.625000E-01 -9.219596E-01
4.375000E-02 9.562500E-01 -9.462919E-01
1.875000E-01 8.750000E-01 -7.393709E-01
2.500000E-01 8.750000E-01 -6.273202E-01
2.500000E-01 9.375000E-01 -6.676937E-01
2.500000E-01 1.000000E+00 -6.764606E-01
1.875000E-01 1.000000E+00 -8.006114E-01
1.625000E-01 9.125000E-01 -8.106268E-01
2.062500E-01 9.187500E-01 -7.410501E-01
2.125000E-01 9.625000E-01 -7.506233E-01
1.687500E-01 9.562500E-01 -8.250676E-01
0.000000E+00 7.500000E-01 -6.764606E-01
6.250000E-02 7.500000E-01 -6.676937E-01
1.250000E-01 7.500000E-01 -6.273202E-01
1.250000E-01 8.125000E-01 -7.393709E-01
0.000000E+00 8.125000E-01 -8.006114E-01
3.750000E-02 7.875000E-01 -7.506233E-01
8.125000E-02 7.937500E-01 -7.410501E-01
8.750000E-02 8.375000E-01 -8.106268E-01
4.375000E-02 8.312500E-01 -8.250676E-01
1.875000E-01 7.500000E-01 -5.658246E-01
2.500000E-01 7.500000E-01 -4.803888E-01
2.500000E-01 8.125000E-01 -5.658246E-01
1.625000E-01 7.875000E-01 -6.598014E-01
2.062500E-01 7.937500E-01 -6.091784E-01
2.125000E-01 8.375000E-01 -6.598014E-01
1.687500E-01 8.312500E-01 -7.183750E-01
3.125000E-01 8.750000E-01 -4.933930E-01
3.750000E-01 8.750000E-01 -3.392247E-01
3.750000E-01 9.375000E-01 -3.607871E-01
3.750000E-01 1.000000E+00 -3.635124E-01
3.125000E-01 1.000000E+00 -5.344914E-01
2.875000E-01 9.125000E-01 -5.757870E-01
3.312500E-01 9.187500E-01 -4.681996E-01
3.375000E-01 9.625000E-01 -4.648607E-01
2.937500E-01 9.562500E-01 -5.783408E-01
4.375000E-01 8.750000E-01 -1.730209E-01
5.000000E-01 8.750000E-01 -3.233571E-04
5.000000E-01 9.375000E-01 7.061983E-05
5.000000E-01 1.000000E+00 3.601213E-03
4.375000E-01 1.000000E+00 -1.878181E-01
4.125000E-01 9.125000E-01 -2.538231E-01
4.562500E-01 9.187500E-01 -1.246330E-01
4.625000E-01 9.625000E-01 -1.092761E-01
4.187500E-01 9.562500E-01 -2.436593E-01
3.125000E-01 7.500000E-01 -3.776191E-01
3.750000E-01 7.500000E-01 -2.601919E-01
3.750000E-01 8.125000E-01 -3.062585E-01
2.875000E-01 7.875000E-01 -4.687011E-01
3.312500E-01 7.937500E-01 -3.851857E-01
3.375000E-01 8.375000E-01 -4.090167E-01
2.937500E-01 8.312500E-01 -5.035377E-01
4.375000E-01 7.500000E-01 -1.324927E-01
5.000000E-01 7.500000E-01 -7.315450E-04
5.000000E-01 8.125000E-01 -5.234889E-04
4.125000E-01 7.875000E-01 -2.065720E-01
4.562500E-01 7.937500E-01 -1.030420E-01
4.625000E-01 8.375000E-01 -9.650635E-02
4.187500E-01 8.312500E-01 -2.125952E-01
0.000000E+00 6.250000E-01 -3.635124E-01
6.250000E-02 6.250000E-01 -3.607871E-01
1.250000E-01 6.250000E-01 -3.392247E-01
1.250000E-01 6.875000E-01 -4.933930E-01
0.000000E+00 6.875000E-01 -5.344914E-01
3.750000E-02 6.625000E-01 -4.648607E-01
8.125000E-02 6.687500E-01 -4.681996E-01
8.750000E-02 7.125000E-01 -5.757870E-01
4.375000E-02 7.062500E-01 -5.783408E-01
1.875000E-01 6.250000E-01 -3.062585E-01
2.500000E-01 6.250000E-01 -2.601919E-01
2.500000E-01 6.875000E-01 -3.776191E-01
1.625000E-01 6.625000E-01 -4.090167E-01
2.062500E-01 6.687500E-01 -3.851857E-01
2.125000E-01 7.125000E-01 -4.687011E-01
1.687500E-01 7.062500E-01 -5.035377E-01
0.000000E+00 5.000000E-01 3.601213E-03
6.250000E-02 5.000000E-01 7.061983E-05
1.250000E-01 5.000000E-01 -3.233571E-04
1.250000E-01 5.625000E-01 -1.730209E-01
0.000000E+00 5.625000E-01 -1.878181E-01
3.750000E-02 5.375000E-01 -1.092761E-01
8.125000E-02 5.437500E-01 -1.246330E-01
8.750000E-02 5.875000E-01 -2.538231E-01
4.375000E-02 5.812500E-01 -2.436593E-01
1.875000E-01 5.000000E-01 -5.234889E-04
2.500000E-01 5.000000E-01 -7.315450E-04
2.500000E-01 5.625000E-01 -1.324927E-01
1.625000E-01 5.375000E-01 -9.650635E-02
2.062500E-01 5.437500E-01 -1.030420E-01
2.125000E-01 5.875000E-01 -2.065720E-01
1.687500E-01 5.812500E-01 -2.125952E-01
3.125000E-01 6.250000E-01 -2.045548E-01
3.750000E-01 6.250000E-01 -1.412506E-01
3.750000E-01 6.875000E-01 -2.045548E-01
2.875000E-01 6.625000E-01 -2.905898E-01
3.312500E-01 6.687500E-01 -2.436257E-01
3.375000E-01 7.125000E-01 -2.905898E-01
2.937500E-01 7.062500E-01 -3.523824E-01
4.375000E-01 6.250000E-01 -7.171625E-02
5.000000E-01 6.250000E-01 -6.733735E-04
5.000000E-01 6.875000E-01 -3.834628E-04
4.125000E-01 6.625000E-01 -1.280671E-01
4.562500E-01 6.687500E-01 -6.554859E-02
4.625000E-01 7.125000E-01 -6.882049E-02
4.187500E-01 7.062500E-01 -1.489794E-01
3.125000E-01 5.000000E-01 -3.834628E-04
3.750000E-01 5.000000E-01 -6.733735E-04
3.750000E-01 5.625000E-01 -7.171625E-02
2.875000E-01 5.375000E-01 -6.882049E-02
3.312500E-01 5.437500E-01 -6.554859E-02
3.375000E-01 5.875000E-01 -1.280671E-01
2.937500E-01 5.812500E-01 -1.489794E-01
4.375000E-01 5.000000E-01 1.947320E-05
5.000000E-01 5.000000E-01 -5.967584E-04
5.000000E-01 5.625000E-01 1.947320E-05
4.125000E-01 5.375000E-01 -3.031747E-02
4.562500E-01 5.437500E-01 -1.809055E-02
4.625000E-01 5.875000E-01 -3.031747E-02
4.187500E-01 5.812500E-01 -6.308267E-02
5.625000E-01 8.750000E-01 1.734175E-01
6.250000E-01 8.750000E-01 3.386688E-01
6.250000E-01 9.375000E-01 3.607270E-01
6.250000E-01 1.000000E+00 3.699495E-01
5.625000E-01 1.000000E+00 1.870341E-01
5.375000E-01 9.125000E-01 1.064039E-01
5.812500E-01 9.187500E-01 2.377407E-01
5.875000E-01 9.625000E-01 2.625806E-01
5.437500E-01 9.562500E-01 1.278206E-01
6.875000E-01 8.750000E-01 4.941599E-01
7.500000E-01 8.750000E-01 6.273418E-01
7.500000E-01 9.375000E-01 6.677239E-01
7.500000E-01 1.000000E+00 6.812973E-01
6.875000E-01 1.000000E+00 5.340528E-01
6.625000E-01 9.125000E-01 4.507824E-01
7.062500E-01 9.187500E-01 5.645586E-01
7.125000E-01 9.625000E-01 5.952736E-01
6.687500E-01 9.562500E-01 4.799465E-01
5.625000E-01 7.500000E-01 1.328278E-01
6.250000E-01 7.500000E-01 2.593097E-01
6.250000E-01 8.125000E-01 3.054830E-01
5.375000E-01 7.875000E-01 8.667474E-02
5.812500E-01 7.937500E-01 1.948933E-01
5.875000E-01 8.375000E-01 2.304422E-01
5.437500E-01 8.312500E-01 1.107761E-01
6.875000E-01 7.500000E-01 3.785388E-01
7.500000E-01 7.500000E-01 4.802730E-01
7.500000E-01 8.125000E-01 5.658738E-01
6.625000E-01 7.875000E-01 3.674062E-01
7.062500E-01 7.937500E-01 4.636489E-01
7.125000E-01 8.375000E-01 5.227885E-01
6.687500E-01 8.312500E-01 4.176522E-01
8.125000E-01 8.750000E-01 7.402595E-01
8.750000E-01 8.750000E-01 8.207552E-01
8.750000E-01 9.375000E-01 8.735611E-01
8.750000E-01 1.000000E+00 8.894844E-01
8.125000E-01 1.000000E+00 8.006146E-01
7.875000E-01 9.125000E-01 7.273419E-01
8.312500E-01 9.187500E-01 8.058141E-01
8.375000E-01 9.625000E-01 8.378432E-01
7.937500E-01 9.562500E-01 7.596938E-01
9.375000E-01 8.750000E-01 8.735611E-01
1.000000E+00 8.750000E-01 8.894844E-01
1.000000E+00 9.375000E-01 9.451128E-01
1.000000E+00 1.000000E+00 9.618371E-01
9.375000E-01 1.000000E+00 9.451128E-01
9.125000E-01 9.125000E-01 8.931935E-01
9.562500E-01 9.187500E-01 9.240164E-01
9.625000E-01 9.625000E-01 9.525174E-01
9.187500E-01 9.562500E-01 9.240164E-01
8.125000E-01 7.500000E-01 5.658738E-01
8.750000E-01 7.500000E-01 6.273418E-01
8.750000E-01 8.125000E-01 7.402595E-01
7.875000E-01 7.875000E-01 5.923202E-01
8.312500E-01 7.937500E-01 6.617494E-01
8.375000E-01 8.375000E-01 7.361464E-01
7.937500E-01 8.312500E-01 6.617494E-01
9.375000E-01 7.500000E-01 6.677239E-01
1.000000E+00 7.500000E-01 6.812973E-01
1.000000E+00 8.125000E-01 8.006146E-01
9.125000E-01 7.875000E-01 7.273419E-01
9.562500E-01 7.937500E-01 7.596938E-01
9.625000E-01 8.375000E-01 8.378432E-01
9.187500E-01 8.312500E-01 8.058141E-01
5.625000E-01 6.250000E-01 7.197662E-02
6.250000E-01 6.250000E-01 1.401870E-01
6.250000E-01 6.875000E-01 2.044056E-01
5.375000E-01 6.625000E-01 5.395752E-02
5.812500E-01 6.687500E-01 1.227207E-01
5.875000E-01 7.125000E-01 1.635244E-01
5.437500E-01 7.062500E-01 7.720468E-02
6.875000E-01 6.250000E-01 2.044056E-01
7.500000E-01 6.250000E-01 2.593097E-01
7.500000E-01 6.875000E-01 3.785388E-01
6.625000E-01 6.625000E-01 2.280381E-01
7.062500E-01 6.687500E-01 2.924297E-01
7.125000E-01 7.125000E-01 3.714871E-01
6.687500E-01 7.062500E-01 2.924297E-01
5.625000E-01 5.000000E-01 1.947320E-05
6.250000E-01 5.000000E-01 -6.733735E-04
6.250000E-01 5.625000E-01 7.197662E-02
5.375000E-01 5.375000E-01 1.296380E-02
5.812500E-01 5.437500E-01 3.213262E-02
5.875000E-01 5.875000E-01 7.206523E-02
5.437500E-01 5.812500E-01 3.213262E-02
6.875000E-01 5.000000E-01 -3.834628E-04
7.500000E-01 5.000000E-01 -7.315450E-04
7.500000E-01 5.625000E-01 1.328278E-01
6.625000E-01 5.375000E-01 5.395752E-02
7.062500E-01 5.437500E-01 7.720468E-02
7.125000E-01 5.875000E-01 1.635244E-01
6.687500E-01 5.812500E-01 1.227207E-01
8.125000E-01 6.250000E-01 3.054830E-01
8.750000E-01 6.250000E-01 3.386688E-01
8.750000E-01 6.875000E-01 4.941599E-01
7.875000E-01 6.625000E-01 3.674062E-01
8.312500E-01 6.687500E-01 4.176522E-01
8.375000E-01 7.125000E-01 5.227885E-01
7.937500E-01 7.062500E-01 4.636489E-01
9.375000E-01 6.250000E-01 3.607270E-01
1.000000E+00 6.250000E-01 3.699495E-01
1.000000E+00 6.875000E-01 5.340528E-01
9.125000E-01 6.625000E-01 4.507824E-01
9.562500E-01 6.687500E-01 4.799465E-01
9.625000E-01 7.125000E-01 5.952736E-01
9.187500E-01 7.062500E-01 5.645586E-01
8.125000E-01 5.000000E-01 -5.234889E-04
8.750000E-01 5.000000E-01 -3.233571E-04
8.750000E-01 5.625000E-01 1.734175E-01
7.875000E-01 5.375000E-01 8.667474E-02
8.312500E-01 5.437500E-01 1.107761E-01
8.375000E-01 5.875000E-01 2.304422E-01
7.937500E-01 5.812500E-01 1.948933E-01
9.375000E-01 5.000000E-01 7.061983E-05
1.000000E+00 5.000000E-01 3.601213E-03
1.000000E+00 5.625000E-01 1.870341E-01
9.125000E-01 5.375000E-01 1.064039E-01
9.562500E-01 5.437500E-01 1.278206E-01
9.625000E-01 5.875000E-01 2.625806E-01
9.187500E-01 5.812500E-01 2.377407E-01
0.000000E+00 3.750000E-01 3.699495E-01
6.250000E-02 3.750000E-01 3.607270E-01
[...]
CELL_DATA 896
SCALARS sol float 1
LOOKUP_TABLE default
-9.031148E-01
-9.063041E-01
-9.269293E-01
-8.699268E-01
-9.305065E-01
-8.736756E-01
-9.447783E-01
-8.457309E-01
-8.420279E-01
-9.305065E-01
-8.736756E-01
-8.430272E-01
-9.598916E-01
-7.980960E-01
-7.980721E-01
-9.447783E-01
-9.063041E-01
-8.430272E-01
-7.973413E-01
-9.598916E-01
-7.790127E-01
-7.496266E-01
-7.702503E-01
-9.269293E-01
-9.031148E-01
-7.973413E-01
-8.420279E-01
-7.663358E-01
-7.262977E-01
-7.060612E-01
-7.103709E-01
-8.699268E-01
-7.702503E-01
-7.663358E-01
-7.980721E-01
-7.100099E-01
-6.853024E-01
-6.474747E-01
-6.822806E-01
-8.457309E-01
-7.103709E-01
-7.100099E-01
-7.790127E-01
-6.660493E-01
-6.300244E-01
-6.026799E-01
-6.114635E-01
-6.248494E-01
-7.980960E-01
-6.853024E-01
-6.822806E-01
-6.660493E-01
-7.262977E-01
-6.176743E-01
-5.695600E-01
-5.298576E-01
-5.448430E-01
-5.692701E-01
-7.496266E-01
-6.300244E-01
-6.248494E-01
-6.176743E-01
-7.060612E-01
-5.575640E-01
-5.168928E-01
-5.469041E-01
-5.088176E-01
-4.582798E-01
-5.154125E-01
-5.695600E-01
-6.114635E-01
-5.692701E-01
-5.575640E-01
-6.474747E-01
-5.110599E-01
-4.385636E-01
-4.716531E-01
-4.356276E-01
-4.009625E-01
-4.541023E-01
-5.168928E-01
-5.469041E-01
-5.448430E-01
-5.154125E-01
-5.110599E-01
-6.026799E-01
-4.467536E-01
-3.926138E-01
-4.170121E-01
-4.350292E-01
-3.266634E-01
-4.137704E-01
-4.385636E-01
-4.716531E-01
-5.088176E-01
-4.541023E-01
-4.467536E-01
-5.298576E-01
-4.061777E-01
-3.216060E-01
-3.560807E-01
-3.714922E-01
-2.681440E-01
-2.876595E-01
-3.451612E-01
-3.926138E-01
-4.170121E-01
-4.350292E-01
-4.356276E-01
-4.137704E-01
-4.061777E-01
-4.582798E-01
-3.413800E-01
-2.567263E-01
-2.872028E-01
-3.198791E-01
-1.813152E-01
-2.085715E-01
-3.131991E-01
-3.216060E-01
-3.560807E-01
-3.714922E-01
-4.009625E-01
-3.451612E-01
-3.413800E-01
-2.954800E-01
-2.439926E-01
-1.854513E-01
-2.429737E-01
-2.609151E-01
-1.610299E-01
-9.909590E-02
-2.556257E-01
-2.567263E-01
-2.876595E-01
-2.872028E-01
-3.198791E-01
-3.266634E-01
-3.131991E-01
-2.954800E-01
-2.492905E-01
-1.615050E-01
-1.007050E-01
-1.740024E-01
-2.007834E-01
-7.959571E-02
-3.627010E-02
-2.042201E-01
-1.854513E-01
-2.439926E-01
-2.085715E-01
-2.429737E-01
-2.609151E-01
-2.681440E-01
-2.556257E-01
-2.492905E-01
-1.983553E-01
-1.379901E-01
-8.998624E-02
-4.123729E-02
-1.481486E-01
-1.817518E-01
4.324611E-02
-1.606901E-01
-1.007050E-01
-1.615050E-01
-1.610299E-01
-1.740024E-01
-2.007834E-01
-1.813152E-01
-2.042201E-01
-1.983553E-01
-1.603558E-01
-6.878097E-02
-3.362894E-02
3.468500E-02
-7.996009E-02
-1.171868E-01
1.065247E-01
7.925273E-02
-1.131425E-01
-4.123729E-02
-8.998624E-02
-1.379901E-01
-7.959571E-02
-1.481486E-01
-1.817518E-01
-9.909590E-02
-1.606901E-01
-1.603558E-01
-1.150080E-01
-3.428552E-02
3.821652E-02
9.456653E-02
-6.773158E-02
-9.401740E-02
1.948598E-01
1.598746E-01
-8.904086E-02
3.468500E-02
-3.362894E-02
-6.878097E-02
-3.627010E-02
-7.996009E-02
-1.171868E-01
-1.131425E-01
-1.150080E-01
-9.128330E-02
2.783096E-02
9.550260E-02
6.659128E-02
1.744013E-01
-2.486804E-02
-4.662256E-02
2.112655E-01
2.746377E-01
-4.628997E-02
9.456653E-02
7.925273E-02
3.821652E-02
-3.428552E-02
4.324611E-02
-6.773158E-02
-9.401740E-02
-8.904086E-02
-9.128330E-02
-5.479137E-02
7.464766E-02
1.736298E-01
1.332387E-01
2.519323E-01
2.759084E-02
-2.162217E-02
2.880502E-01
3.332103E-01
-3.497156E-02
1.744013E-01
9.550260E-02
1.598746E-01
6.659128E-02
2.783096E-02
1.065247E-01
-2.486804E-02
-4.662256E-02
-4.628997E-02
-5.479137E-02
-3.603995E-02
7.092341E-02
1.400172E-01
1.804416E-01
2.503482E-01
3.160458E-01
4.451388E-02
1.746612E-02
4.068646E-01
-1.132303E-02
2.519323E-01
1.736298E-01
2.112655E-01
1.332387E-01
7.464766E-02
1.948598E-01
2.759084E-02
-2.162217E-02
-3.497156E-02
-3.603995E-02
-1.680674E-02
1.258058E-01
1.975727E-01
2.438486E-01
2.929369E-01
3.859181E-01
8.652094E-02
4.291294E-02
4.650852E-01
4.339957E-01
1.239549E-02
3.160458E-01
2.503482E-01
1.804416E-01
2.880502E-01
1.400172E-01
7.092341E-02
2.746377E-01
4.451388E-02
1.746612E-02
-1.132303E-02
-1.680674E-02
-5.211539E-03
1.220665E-01
1.874689E-01
2.565981E-01
3.587610E-01
4.325249E-01
8.418624E-02
3.604521E-02
5.417224E-01
5.039706E-01
1.572492E-02
3.859181E-01
2.929369E-01
2.438486E-01
3.332103E-01
1.975727E-01
1.258058E-01
8.652094E-02
4.291294E-02
1.239549E-02
-5.211539E-03
4.018022E-03
1.633347E-01
2.094729E-01
3.131719E-01
4.208836E-01
3.667667E-01
5.082084E-01
1.137492E-01
5.873647E-02
5.513323E-01
6.081217E-01
2.723064E-02
4.325249E-01
4.339957E-01
3.587610E-01
2.565981E-01
4.068646E-01
1.874689E-01
1.220665E-01
8.418624E-02
3.604521E-02
1.572492E-02
4.018022E-03
4.018022E-03
1.586144E-01
2.562788E-01
3.396313E-01
4.823956E-01
4.203668E-01
5.671072E-01
9.515196E-02
4.608763E-02
6.127479E-01
6.531462E-01
1.572492E-02
5.082084E-01
4.208836E-01
5.039706E-01
3.667667E-01
3.131719E-01
4.650852E-01
2.094729E-01
1.633347E-01
1.137492E-01
5.873647E-02
2.723064E-02
4.018022E-03
-5.211539E-03
1.932326E-01
3.142831E-01
2.443782E-01
4.075865E-01
4.710799E-01
5.538779E-01
6.265359E-01
9.515196E-02
5.873647E-02
7.098288E-01
1.239549E-02
5.671072E-01
4.823956E-01
5.513323E-01
4.203668E-01
3.396313E-01
5.417224E-01
2.562788E-01
1.586144E-01
9.515196E-02
4.608763E-02
1.572492E-02
-5.211539E-03
-1.680674E-02
1.932326E-01
3.491783E-01
2.737636E-01
4.460054E-01
5.194824E-01
5.759405E-01
6.800021E-01
1.137492E-01
3.604521E-02
7.540924E-01
7.238995E-01
-1.132303E-02
6.265359E-01
5.538779E-01
4.710799E-01
6.127479E-01
4.075865E-01
3.142831E-01
6.081217E-01
2.443782E-01
1.932326E-01
9.515196E-02
5.873647E-02
1.239549E-02
-1.680674E-02
-3.603995E-02
1.586144E-01
2.443782E-01
3.198444E-01
4.139529E-01
5.094194E-01
6.257111E-01
7.057176E-01
8.418624E-02
4.291294E-02
8.063180E-01
7.712062E-01
-3.497156E-02
6.800021E-01
5.759405E-01
5.194824E-01
6.531462E-01
4.460054E-01
3.491783E-01
2.737636E-01
1.932326E-01
1.137492E-01
3.604521E-02
-1.132303E-02
-3.603995E-02
-5.479137E-02
1.633347E-01
2.562788E-01
3.491783E-01
4.139529E-01
5.517143E-01
6.838421E-01
6.123441E-01
7.648042E-01
8.652094E-02
1.746612E-02
8.074197E-01
8.500427E-01
-4.628997E-02
7.057176E-01
7.238995E-01
6.257111E-01
5.094194E-01
7.098288E-01
4.139529E-01
3.198444E-01
2.443782E-01
1.586144E-01
8.418624E-02
4.291294E-02
-3.497156E-02
-5.479137E-02
-9.128330E-02
1.220665E-01
2.094729E-01
3.142831E-01
4.460054E-01
5.517143E-01
7.172898E-01
6.439865E-01
7.969290E-01
4.451388E-02
-2.162217E-02
8.446225E-01
8.744180E-01
-8.904086E-02
7.648042E-01
6.838421E-01
7.712062E-01
6.123441E-01
5.517143E-01
7.540924E-01
4.139529E-01
3.491783E-01
2.562788E-01
1.633347E-01
8.652094E-02
1.746612E-02
-4.628997E-02
-9.128330E-02
-1.150080E-01
1.258058E-01
1.874689E-01
3.396313E-01
5.094194E-01
4.075865E-01
6.123441E-01
6.906379E-01
7.729110E-01
8.423039E-01
2.759084E-02
-4.662256E-02
9.047880E-01
-1.131425E-01
7.969290E-01
7.172898E-01
8.074197E-01
6.439865E-01
5.517143E-01
8.063180E-01
4.460054E-01
3.142831E-01
2.094729E-01
1.220665E-01
4.451388E-02
-2.162217E-02
-8.904086E-02
-1.150080E-01
-1.603558E-01
7.092341E-02
1.975727E-01
3.131719E-01
5.194824E-01
4.203668E-01
6.257111E-01
7.172898E-01
7.729110E-01
8.708769E-01
-2.486804E-02
-9.401740E-02
9.286888E-01
9.043439E-01
-1.606901E-01
8.423039E-01
7.729110E-01
6.906379E-01
8.446225E-01
6.123441E-01
5.094194E-01
8.500427E-01
4.075865E-01
3.396313E-01
1.874689E-01
1.258058E-01
2.759084E-02
-4.662256E-02
-1.131425E-01
-1.603558E-01
-1.983553E-01
7.464766E-02
2.565981E-01
1.400172E-01
3.667667E-01
4.710799E-01
5.759405E-01
6.838421E-01
7.969290E-01
8.708769E-01
-6.773158E-02
-1.171868E-01
9.478446E-01
9.213348E-01
-2.042201E-01
8.708769E-01
7.729110E-01
7.172898E-01
8.744180E-01
6.257111E-01
5.194824E-01
4.203668E-01
3.131719E-01
1.975727E-01
7.092341E-02
-2.486804E-02
-9.401740E-02
-1.606901E-01
-1.983553E-01
-2.492905E-01
2.783096E-02
2.438486E-01
1.332387E-01
3.587610E-01
4.823956E-01
5.538779E-01
7.057176E-01
8.423039E-01
7.648042E-01
9.043439E-01
-7.996009E-02
-1.817518E-01
9.407936E-01
9.618371E-01
-2.556257E-01
8.708769E-01
9.043439E-01
7.969290E-01
6.838421E-01
9.047880E-01
5.759405E-01
4.710799E-01
3.667667E-01
2.565981E-01
1.400172E-01
7.464766E-02
-6.773158E-02
-1.171868E-01
-2.042201E-01
-2.492905E-01
-2.954800E-01
6.659128E-02
-3.428552E-02
1.804416E-01
2.929369E-01
4.208836E-01
5.671072E-01
6.800021E-01
8.446225E-01
7.712062E-01
9.047880E-01
-1.481486E-01
-2.007834E-01
9.478446E-01
9.618371E-01
-3.131991E-01
9.043439E-01
8.423039E-01
9.213348E-01
7.648042E-01
7.057176E-01
9.286888E-01
5.538779E-01
4.823956E-01
3.587610E-01
2.438486E-01
1.332387E-01
2.783096E-02
-7.996009E-02
-1.817518E-01
-2.556257E-01
-2.954800E-01
-3.413800E-01
3.821652E-02
-6.878097E-02
1.736298E-01
2.503482E-01
4.325249E-01
6.265359E-01
5.082084E-01
7.238995E-01
8.074197E-01
8.744180E-01
9.286888E-01
-1.740024E-01
-2.609151E-01
-3.451612E-01
9.047880E-01
8.446225E-01
9.407936E-01
7.712062E-01
6.800021E-01
9.478446E-01
5.671072E-01
4.208836E-01
2.929369E-01
1.804416E-01
6.659128E-02
-3.428552E-02
-1.481486E-01
-2.007834E-01
-3.131991E-01
-3.413800E-01
-4.061777E-01
9.550260E-02
-3.362894E-02
-1.379901E-01
2.519323E-01
3.859181E-01
6.127479E-01
5.039706E-01
7.098288E-01
8.063180E-01
8.500427E-01
-2.429737E-01
-3.198791E-01
-4.137704E-01
9.286888E-01
8.744180E-01
8.074197E-01
9.478446E-01
7.238995E-01
6.265359E-01
9.618371E-01
5.082084E-01
4.325249E-01
2.503482E-01
1.736298E-01
3.821652E-02
-6.878097E-02
-1.740024E-01
-2.609151E-01
-3.451612E-01
-4.061777E-01
-4.467536E-01
9.456653E-02
-8.998624E-02
-1.615050E-01
3.160458E-01
1.744013E-01
4.339957E-01
5.513323E-01
6.531462E-01
7.540924E-01
-2.872028E-01
-3.714922E-01
-4.541023E-01
8.500427E-01
8.063180E-01
9.618371E-01
7.098288E-01
6.127479E-01
5.039706E-01
3.859181E-01
2.519323E-01
9.550260E-02
-3.362894E-02
-1.379901E-01
-2.429737E-01
-3.198791E-01
-4.137704E-01
-4.467536E-01
-5.110599E-01
3.468500E-02
-1.007050E-01
-2.439926E-01
2.880502E-01
1.598746E-01
4.068646E-01
5.417224E-01
6.081217E-01
-3.560807E-01
-4.350292E-01
-5.154125E-01
7.540924E-01
6.531462E-01
5.513323E-01
4.339957E-01
3.160458E-01
1.744013E-01
9.456653E-02
-8.998624E-02
-1.615050E-01
-2.872028E-01
-3.714922E-01
-4.541023E-01
-5.110599E-01
-5.575640E-01
7.925273E-02
-4.123729E-02
-1.854513E-01
-2.567263E-01
2.112655E-01
3.332103E-01
4.650852E-01
-4.170121E-01
-4.716531E-01
-5.692701E-01
6.081217E-01
5.417224E-01
4.068646E-01
2.880502E-01
1.598746E-01
3.468500E-02
-1.007050E-01
-2.439926E-01
-3.560807E-01
-4.350292E-01
-5.154125E-01
-5.575640E-01
-6.176743E-01
4.324611E-02
-7.959571E-02
-2.085715E-01
-3.216060E-01
1.948598E-01
2.746377E-01
-4.385636E-01
-5.469041E-01
-6.248494E-01
4.650852E-01
3.332103E-01
2.112655E-01
7.925273E-02
-4.123729E-02
-1.854513E-01
-2.567263E-01
-4.170121E-01
-4.716531E-01
-5.692701E-01
-6.176743E-01
-6.660493E-01
1.065247E-01
-3.627010E-02
-1.610299E-01
-2.876595E-01
-3.926138E-01
-5.168928E-01
-5.695600E-01
-6.822806E-01
2.746377E-01
1.948598E-01
4.324611E-02
-7.959571E-02
-2.085715E-01
-3.216060E-01
-4.385636E-01
-5.469041E-01
-6.248494E-01
-6.660493E-01
-7.100099E-01
-9.909590E-02
-1.813152E-01
-3.266634E-01
-4.356276E-01
-5.448430E-01
-6.300244E-01
-7.103709E-01
1.065247E-01
-3.627010E-02
-1.610299E-01
-2.876595E-01
-3.926138E-01
-5.168928E-01
-5.695600E-01
-6.822806E-01
-7.100099E-01
-7.663358E-01
-2.681440E-01
-4.009625E-01
-5.088176E-01
-6.114635E-01
-6.853024E-01
-7.702503E-01
-9.909590E-02
-1.813152E-01
-3.266634E-01
-4.356276E-01
-5.448430E-01
-6.300244E-01
-7.103709E-01
-7.663358E-01
-7.973413E-01
-4.582798E-01
-5.298576E-01
-6.474747E-01
-7.262977E-01
-7.980721E-01
-2.681440E-01
-4.009625E-01
-5.088176E-01
-6.114635E-01
-6.853024E-01
-7.702503E-01
-7.973413E-01
-8.430272E-01
-6.026799E-01
-7.060612E-01
-7.790127E-01
-8.420279E-01
-4.582798E-01
-5.298576E-01
-6.474747E-01
-7.262977E-01
-7.980721E-01
-8.430272E-01
-8.736756E-01
-7.496266E-01
-7.980960E-01
-8.699268E-01
-6.026799E-01
-7.060612E-01
-7.790127E-01
-8.420279E-01
-8.736756E-01
-9.063041E-01
-8.457309E-01
-9.031148E-01
-7.496266E-01
-7.980960E-01
-8.699268E-01
-9.063041E-01
-9.305065E-01
-9.269293E-01
-8.457309E-01
-9.031148E-01
-9.305065E-01
-9.447783E-01
-9.269293E-01
-9.447783E-01
-9.598916E-01
-9.598916E-01
