# vtk DataFile Version 2.0
Grille
ASCII
DATASET POLYDATA
POINTS 481 float
0.000000E+00 8.750000E-01 -9.058337E-01
6.250000E-02 8.750000E-01 -8.920517E-01
1.250000E-01 8.750000E-01 -8.380489E-01
1.250000E-01 9.375000E-01 -8.920517E-01
1.250000E-01 1.000000E+00 -9.058337E-01
6.250000E-02 1.000000E+00 -9.655318E-01
0.000000E+00 1.000000E+00 -9.809669E-01
0.000000E+00 9.375000E-01 -9.655318E-01
3.750000E-02 9.125000E-01 -9.421711E-01
8.125000E-02 9.187500E-01 -9.208171E-01
8.750000E-02 9.625000E-01 -9.421711E-01
4.375000E-02 9.562500E-01 -9.670556E-01
1.875000E-01 8.750000E-01 -7.555970E-01
2.500000E-01 8.750000E-01 -6.411843E-01
2.500000E-01 9.375000E-01 -6.824190E-01
2.500000E-01 1.000000E+00 -6.913538E-01
1.875000E-01 1.000000E+00 -8.181117E-01
1.625000E-01 9.125000E-01 -8.283673E-01
2.062500E-01 9.187500E-01 -7.573090E-01
2.125000E-01 9.625000E-01 -7.670657E-01
1.687500E-01 9.562500E-01 -8.431174E-01
0.000000E+00 7.500000E-01 -6.913538E-01
6.250000E-02 7.500000E-01 -6.824190E-01
1.250000E-01 7.500000E-01 -6.411843E-01
1.250000E-01 8.125000E-01 -7.555970E-01
0.000000E+00 8.125000E-01 -8.181117E-01
3.750000E-02 7.875000E-01 -7.670657E-01
8.125000E-02 7.937500E-01 -7.573090E-01
8.750000E-02 8.375000E-01 -8.283673E-01
4.375000E-02 8.312500E-01 -8.431174E-01
1.875000E-01 7.500000E-01 -5.783757E-01
2.500000E-01 7.500000E-01 -4.911191E-01
2.500000E-01 8.125000E-01 -5.783757E-01
1.625000E-01 7.875000E-01 -6.743374E-01
2.062500E-01 7.937500E-01 -6.226227E-01
2.125000E-01 8.375000E-01 -6.743374E-01
1.687500E-01 8.312500E-01 -7.341265E-01
3.125000E-01 8.750000E-01 -5.044112E-01
3.750000E-01 8.750000E-01 -3.468930E-01
3.750000E-01 9.375000E-01 -3.689611E-01
3.750000E-01 1.000000E+00 -3.717266E-01
3.125000E-01 1.000000E+00 -5.463902E-01
2.875000E-01 9.125000E-01 -5.885800E-01
3.312500E-01 9.187500E-01 -4.787007E-01
3.375000E-01 9.625000E-01 -4.752750E-01
2.937500E-01 9.562500E-01 -5.912092E-01
4.375000E-01 8.750000E-01 -1.769905E-01
5.000000E-01 8.750000E-01 -3.752824E-04
5.000000E-01 9.375000E-01 3.387566E-06
5.000000E-01 1.000000E+00 3.618338E-03
4.375000E-01 1.000000E+00 -1.921533E-01
4.125000E-01 9.125000E-01 -2.596385E-01
4.562500E-01 9.187500E-01 -1.275354E-01
4.625000E-01 9.625000E-01 -1.118305E-01
4.187500E-01 9.562500E-01 -2.492685E-01
3.125000E-01 7.500000E-01 -3.861086E-01
3.750000E-01 7.500000E-01 -2.660761E-01
3.750000E-01 8.125000E-01 -3.131898E-01
2.875000E-01 7.875000E-01 -4.791644E-01
3.312500E-01 7.937500E-01 -3.938319E-01
3.375000E-01 8.375000E-01 -4.182025E-01
2.937500E-01 8.312500E-01 -5.147471E-01
4.375000E-01 7.500000E-01 -1.354984E-01
5.000000E-01 7.500000E-01 -7.411798E-04
5.000000E-01 8.125000E-01 -5.624802E-04
4.125000E-01 7.875000E-01 -2.112578E-01
4.562500E-01 7.937500E-01 -1.053953E-01
4.625000E-01 8.375000E-01 -9.872314E-02
4.187500E-01 8.312500E-01 -2.174423E-01
0.000000E+00 6.250000E-01 -3.717266E-01
6.250000E-02 6.250000E-01 -3.689611E-01
1.250000E-01 6.250000E-01 -3.468930E-01
1.250000E-01 6.875000E-01 -5.044112E-01
0.000000E+00 6.875000E-01 -5.463902E-01
3.750000E-02 6.625000E-01 -4.752750E-01
8.125000E-02 6.687500E-01 -4.787007E-01
8.750000E-02 7.125000E-01 -5.885800E-01
4.375000E-02 7.062500E-01 -5.912092E-01
1.875000E-01 6.250000E-01 -3.131898E-01
2.500000E-01 6.250000E-01 -2.660761E-01
2.500000E-01 6.875000E-01 -3.861086E-01
1.625000E-01 6.625000E-01 -4.182025E-01
2.062500E-01 6.687500E-01 -3.938319E-01
2.125000E-01 7.125000E-01 -4.791644E-01
1.687500E-01 7.062500E-01 -5.147471E-01
0.000000E+00 5.000000E-01 3.618338E-03
6.250000E-02 5.000000E-01 3.387566E-06
1.250000E-01 5.000000E-01 -3.752824E-04
1.250000E-01 5.625000E-01 -1.769905E-01
0.000000E+00 5.625000E-01 -1.921533E-01
3.750000E-02 5.375000E-01 -1.118305E-01
8.125000E-02 5.437500E-01 -1.275354E-01
8.750000E-02 5.875000E-01 -2.596385E-01
4.375000E-02 5.812500E-01 -2.492685E-01
1.875000E-01 5.000000E-01 -5.624802E-04
2.500000E-01 5.000000E-01 -7.411798E-04
2.500000E-01 5.625000E-01 -1.354984E-01
1.625000E-01 5.375000E-01 -9.872314E-02
2.062500E-01 5.437500E-01 -1.053953E-01
2.125000E-01 5.875000E-01 -2.112578E-01
1.687500E-01 5.812500E-01 -2.174423E-01
3.125000E-01 6.250000E-01 -2.091776E-01
3.750000E-01 6.250000E-01 -1.444498E-01
3.750000E-01 6.875000E-01 -2.091776E-01
2.875000E-01 6.625000E-01 -2.971315E-01
3.312500E-01 6.687500E-01 -2.490944E-01
3.375000E-01 7.125000E-01 -2.971315E-01
2.937500E-01 7.062500E-01 -3.602728E-01
4.375000E-01 6.250000E-01 -7.331975E-02
5.000000E-01 6.250000E-01 -6.412805E-04
5.000000E-01 6.875000E-01 -3.689342E-04
4.125000E-01 6.625000E-01 -1.309551E-01
4.562500E-01 6.687500E-01 -6.700763E-02
4.625000E-01 7.125000E-01 -7.036736E-02
4.187500E-01 7.062500E-01 -1.523375E-01
3.125000E-01 5.000000E-01 -3.689342E-04
3.750000E-01 5.000000E-01 -6.412805E-04
3.750000E-01 5.625000E-01 -7.331975E-02
2.875000E-01 5.375000E-01 -7.036736E-02
3.312500E-01 5.437500E-01 -6.700763E-02
3.375000E-01 5.875000E-01 -1.309551E-01
2.937500E-01 5.812500E-01 -1.523375E-01
4.375000E-01 5.000000E-01 7.844984E-05
5.000000E-01 5.000000E-01 -5.487816E-04
5.000000E-01 5.625000E-01 7.844984E-05
4.125000E-01 5.375000E-01 -3.096634E-02
4.562500E-01 5.437500E-01 -1.845171E-02
4.625000E-01 5.875000E-01 -3.096634E-02
4.187500E-01 5.812500E-01 -6.447989E-02
5.625000E-01 8.750000E-01 1.773128E-01
6.250000E-01 8.750000E-01 3.461939E-01
6.250000E-01 9.375000E-01 3.687440E-01
6.250000E-01 1.000000E+00 3.781620E-01
5.625000E-01 1.000000E+00 1.912172E-01
5.375000E-01 9.125000E-01 1.087684E-01
5.812500E-01 9.187500E-01 2.430806E-01
5.875000E-01 9.625000E-01 2.684764E-01
5.437500E-01 9.562500E-01 1.306682E-01
6.875000E-01 8.750000E-01 5.050343E-01
7.500000E-01 8.750000E-01 6.409934E-01
7.500000E-01 9.375000E-01 6.821978E-01
7.500000E-01 1.000000E+00 6.960494E-01
6.875000E-01 1.000000E+00 5.457572E-01
6.625000E-01 9.125000E-01 4.607288E-01
7.062500E-01 9.187500E-01 5.769239E-01
7.125000E-01 9.625000E-01 6.082772E-01
6.687500E-01 9.562500E-01 4.905190E-01
5.625000E-01 7.500000E-01 1.358601E-01
6.250000E-01 7.500000E-01 2.651319E-01
6.250000E-01 8.125000E-01 3.122796E-01
5.375000E-01 7.875000E-01 8.864295E-02
5.812500E-01 7.937500E-01 1.992855E-01
5.875000E-01 8.375000E-01 2.356205E-01
5.437500E-01 8.312500E-01 1.132662E-01
6.875000E-01 7.500000E-01 3.869700E-01
7.500000E-01 7.500000E-01 4.908554E-01
7.500000E-01 8.125000E-01 5.782308E-01
6.625000E-01 7.875000E-01 3.755687E-01
7.062500E-01 7.937500E-01 4.738597E-01
7.125000E-01 8.375000E-01 5.342496E-01
6.687500E-01 8.312500E-01 4.268733E-01
8.125000E-01 8.750000E-01 7.562706E-01
8.750000E-01 8.750000E-01 8.384662E-01
8.750000E-01 9.375000E-01 8.924101E-01
8.750000E-01 1.000000E+00 9.086912E-01
8.125000E-01 1.000000E+00 8.178654E-01
7.875000E-01 9.125000E-01 7.430552E-01
8.312500E-01 9.187500E-01 8.231939E-01
8.375000E-01 9.625000E-01 8.559047E-01
7.937500E-01 9.562500E-01 7.760731E-01
9.375000E-01 8.750000E-01 8.924101E-01
1.000000E+00 8.750000E-01 9.086912E-01
1.000000E+00 9.375000E-01 9.655849E-01
1.000000E+00 1.000000E+00 9.826978E-01
9.375000E-01 1.000000E+00 9.655849E-01
9.125000E-01 9.125000E-01 9.124744E-01
9.562500E-01 9.187500E-01 9.440044E-01
9.625000E-01 9.625000E-01 9.731625E-01
9.187500E-01 9.562500E-01 9.440044E-01
8.125000E-01 7.500000E-01 5.782308E-01
8.750000E-01 7.500000E-01 6.409934E-01
8.750000E-01 8.125000E-01 7.562706E-01
7.875000E-01 7.875000E-01 6.052333E-01
8.312500E-01 7.937500E-01 6.761066E-01
8.375000E-01 8.375000E-01 7.520597E-01
7.937500E-01 8.312500E-01 6.761066E-01
9.375000E-01 7.500000E-01 6.821978E-01
1.000000E+00 7.500000E-01 6.960494E-01
1.000000E+00 8.125000E-01 8.178654E-01
9.125000E-01 7.875000E-01 7.430552E-01
9.562500E-01 7.937500E-01 7.760731E-01
9.625000E-01 8.375000E-01 8.559047E-01
9.187500E-01 8.312500E-01 8.231939E-01
5.625000E-01 6.250000E-01 7.368424E-02
6.250000E-01 6.250000E-01 1.434155E-01
6.250000E-01 6.875000E-01 2.090247E-01
5.375000E-01 6.625000E-01 5.523608E-02
5.812500E-01 6.687500E-01 1.255429E-01
5.875000E-01 7.125000E-01 1.672403E-01
5.437500E-01 7.062500E-01 7.898532E-02
6.875000E-01 6.250000E-01 2.090247E-01
7.500000E-01 6.250000E-01 2.651319E-01
7.500000E-01 6.875000E-01 3.869700E-01
6.625000E-01 6.625000E-01 2.331800E-01
7.062500E-01 6.687500E-01 2.989690E-01
7.125000E-01 7.125000E-01 3.797497E-01
6.687500E-01 7.062500E-01 2.989690E-01
5.625000E-01 5.000000E-01 7.844984E-05
6.250000E-01 5.000000E-01 -6.412805E-04
6.250000E-01 5.625000E-01 7.368424E-02
5.375000E-01 5.375000E-01 1.332973E-02
5.812500E-01 5.437500E-01 3.293204E-02
5.875000E-01 5.875000E-01 7.377530E-02
5.437500E-01 5.812500E-01 3.293204E-02
6.875000E-01 5.000000E-01 -3.689342E-04
7.500000E-01 5.000000E-01 -7.411798E-04
7.500000E-01 5.625000E-01 1.358601E-01
6.625000E-01 5.375000E-01 5.523608E-02
7.062500E-01 5.437500E-01 7.898532E-02
7.125000E-01 5.875000E-01 1.672403E-01
6.687500E-01 5.812500E-01 1.255429E-01
8.125000E-01 6.250000E-01 3.122796E-01
8.750000E-01 6.250000E-01 3.461939E-01
8.750000E-01 6.875000E-01 5.050343E-01
7.875000E-01 6.625000E-01 3.755687E-01
8.312500E-01 6.687500E-01 4.268733E-01
8.375000E-01 7.125000E-01 5.342496E-01
7.937500E-01 7.062500E-01 4.738597E-01
9.375000E-01 6.250000E-01 3.687440E-01
1.000000E+00 6.250000E-01 3.781620E-01
1.000000E+00 6.875000E-01 5.457572E-01
9.125000E-01 6.625000E-01 4.607288E-01
9.562500E-01 6.687500E-01 4.905190E-01
9.625000E-01 7.125000E-01 6.082772E-01
9.187500E-01 7.062500E-01 5.769239E-01
8.125000E-01 5.000000E-01 -5.624802E-04
8.750000E-01 5.000000E-01 -3.752824E-04
8.750000E-01 5.625000E-01 1.773128E-01
7.875000E-01 5.375000E-01 8.864295E-02
8.312500E-01 5.437500E-01 1.132662E-01
8.375000E-01 5.875000E-01 2.356205E-01
7.937500E-01 5.812500E-01 1.992855E-01
9.375000E-01 5.000000E-01 3.387566E-06
1.000000E+00 5.000000E-01 3.618338E-03
1.000000E+00 5.625000E-01 1.912172E-01
9.125000E-01 5.375000E-01 1.087684E-01
9.562500E-01 5.437500E-01 1.306682E-01
9.625000E-01 5.875000E-01 2.684764E-01
9.187500E-01 5.812500E-01 2.430806E-01
0.000000E+00 3.750000E-01 3.781620E-01
6.250000E-02 3.750000E-01 3.687440E-01
[...]
CELL_DATA 896
SCALARS sol float 1
LOOKUP_TABLE default
-9.229101E-01
-9.261602E-01
-9.472456E-01
-8.889451E-01
-9.509085E-01
-8.927778E-01
-9.655073E-01
-8.642339E-01
-8.604489E-01
-9.509085E-01
-8.927778E-01
-8.614858E-01
-9.809669E-01
-8.155445E-01
-8.155287E-01
-9.655073E-01
-9.261602E-01
-8.614858E-01
-8.147861E-01
-9.809669E-01
-7.960852E-01
-7.659898E-01
-7.871194E-01
-9.472456E-01
-9.229101E-01
-8.147861E-01
-8.604489E-01
-7.831461E-01
-7.422430E-01
-7.215755E-01
-7.260030E-01
-8.889451E-01
-7.871194E-01
-7.831461E-01
-8.155287E-01
-7.255784E-01
-7.003656E-01
-6.617835E-01
-6.973143E-01
-8.642339E-01
-7.260030E-01
-7.255784E-01
-7.960852E-01
-6.806440E-01
-6.439690E-01
-6.160663E-01
-6.250533E-01
-6.387011E-01
-8.155445E-01
-7.003656E-01
-6.973143E-01
-6.806440E-01
-7.422430E-01
-6.313387E-01
-5.821567E-01
-5.416813E-01
-5.570104E-01
-5.818457E-01
-7.659898E-01
-6.439690E-01
-6.387011E-01
-6.313387E-01
-7.215755E-01
-5.699230E-01
-5.284387E-01
-5.591188E-01
-5.202300E-01
-4.684895E-01
-5.268773E-01
-5.821567E-01
-6.250533E-01
-5.818457E-01
-5.699230E-01
-6.617835E-01
-5.224819E-01
-4.484329E-01
-4.821993E-01
-4.454300E-01
-4.099933E-01
-4.642100E-01
-5.284387E-01
-5.591188E-01
-5.570104E-01
-5.268773E-01
-5.224819E-01
-6.160663E-01
-4.567623E-01
-4.014412E-01
-4.263392E-01
-4.447461E-01
-3.341190E-01
-4.230238E-01
-4.484329E-01
-4.821993E-01
-5.202300E-01
-4.642100E-01
-4.567623E-01
-5.416813E-01
-4.153093E-01
-3.289390E-01
-3.641518E-01
-3.798987E-01
-2.743048E-01
-2.942660E-01
-3.529669E-01
-4.014412E-01
-4.263392E-01
-4.447461E-01
-4.454300E-01
-4.230238E-01
-4.153093E-01
-4.684895E-01
-3.490324E-01
-2.625533E-01
-2.936854E-01
-3.270773E-01
-1.855206E-01
-2.134038E-01
-3.202930E-01
-3.289390E-01
-3.641518E-01
-3.798987E-01
-4.099933E-01
-3.529669E-01
-3.490324E-01
-3.020398E-01
-2.496012E-01
-1.897333E-01
-2.485176E-01
-2.668336E-01
-1.647866E-01
-1.013964E-01
-2.614379E-01
-2.625533E-01
-2.942660E-01
-2.936854E-01
-3.270773E-01
-3.341190E-01
-3.202930E-01
-3.020398E-01
-2.549171E-01
-1.652079E-01
-1.030619E-01
-1.779661E-01
-2.053005E-01
-8.148231E-02
-3.714691E-02
-2.087868E-01
-1.897333E-01
-2.496012E-01
-2.134038E-01
-2.485176E-01
-2.668336E-01
-2.743048E-01
-2.614379E-01
-2.549171E-01
-2.028380E-01
-1.411381E-01
-9.202122E-02
-4.220310E-02
-1.515032E-01
-1.859126E-01
4.414378E-02
-1.643194E-01
-1.030619E-01
-1.652079E-01
-1.647866E-01
-1.779661E-01
-2.053005E-01
-1.855206E-01
-2.087868E-01
-2.028380E-01
-1.640115E-01
-7.038505E-02
-3.443973E-02
3.537540E-02
-8.180754E-02
-1.198444E-01
1.088728E-01
8.097841E-02
-1.156602E-01
-4.220310E-02
-9.202122E-02
-1.411381E-01
-8.148231E-02
-1.515032E-01
-1.859126E-01
-1.013964E-01
-1.643194E-01
-1.640115E-01
-1.176119E-01
-3.505414E-02
3.906683E-02
9.668411E-02
-6.922933E-02
-9.610881E-02
1.992493E-01
1.634763E-01
-9.102038E-02
3.537540E-02
-3.443973E-02
-7.038505E-02
-3.714691E-02
-8.180754E-02
-1.198444E-01
-1.156602E-01
-1.176119E-01
-9.333794E-02
2.842688E-02
9.759737E-02
6.806537E-02
1.783345E-01
-2.544558E-02
-4.767922E-02
2.160391E-01
2.807889E-01
-4.732983E-02
9.668411E-02
8.097841E-02
3.906683E-02
-3.505414E-02
4.414378E-02
-6.922933E-02
-9.610881E-02
-9.102038E-02
-9.333794E-02
-5.599806E-02
7.639071E-02
1.775712E-01
1.362611E-01
2.575649E-01
2.826681E-02
-2.208148E-02
2.945162E-01
3.406688E-01
-3.572915E-02
1.783345E-01
9.759737E-02
1.634763E-01
6.806537E-02
2.842688E-02
1.088728E-01
-2.544558E-02
-4.767922E-02
-4.732983E-02
-5.599806E-02
-3.680372E-02
7.252274E-02
1.432240E-01
1.845305E-01
2.560113E-01
3.231297E-01
4.555156E-02
1.789868E-02
4.158762E-01
-1.154959E-02
2.575649E-01
1.775712E-01
2.160391E-01
1.362611E-01
7.639071E-02
1.992493E-01
2.826681E-02
-2.208148E-02
-3.572915E-02
-3.680372E-02
-1.714928E-02
1.287106E-01
2.020142E-01
2.493038E-01
2.994372E-01
3.944265E-01
8.852395E-02
4.397772E-02
4.753143E-01
4.435576E-01
1.275633E-02
3.231297E-01
2.560113E-01
1.845305E-01
2.945162E-01
1.432240E-01
7.252274E-02
2.807889E-01
4.555156E-02
1.789868E-02
-1.154959E-02
-1.714928E-02
-5.275070E-03
1.248545E-01
1.917715E-01
2.623497E-01
3.667341E-01
4.420970E-01
8.617081E-02
3.692708E-02
5.536290E-01
5.150853E-01
1.615795E-02
3.944265E-01
2.994372E-01
2.493038E-01
3.406688E-01
2.020142E-01
1.287106E-01
8.852395E-02
4.397772E-02
1.275633E-02
-5.275070E-03
4.177507E-03
1.670310E-01
2.141520E-01
3.201276E-01
4.301502E-01
3.748861E-01
5.194152E-01
1.163924E-01
6.014363E-02
5.634495E-01
6.213723E-01
2.791993E-02
4.420970E-01
4.435576E-01
3.667341E-01
2.623497E-01
4.158762E-01
1.917715E-01
1.248545E-01
8.617081E-02
3.692708E-02
1.615795E-02
4.177507E-03
4.177507E-03
1.622486E-01
2.620570E-01
3.472558E-01
4.930450E-01
4.296410E-01
5.794896E-01
9.739586E-02
4.718782E-02
6.261154E-01
6.673340E-01
1.615795E-02
5.194152E-01
4.301502E-01
5.150853E-01
3.748861E-01
3.201276E-01
4.753143E-01
2.141520E-01
1.670310E-01
1.163924E-01
6.014363E-02
2.791993E-02
4.177507E-03
-5.275070E-03
1.976249E-01
3.213278E-01
2.498809E-01
4.166504E-01
4.814310E-01
5.660642E-01
6.401862E-01
9.739586E-02
6.014363E-02
7.251703E-01
1.275633E-02
5.794896E-01
4.930450E-01
5.634495E-01
4.296410E-01
3.472558E-01
5.536290E-01
2.620570E-01
1.622486E-01
9.739586E-02
4.718782E-02
1.615795E-02
-5.275070E-03
-1.714928E-02
1.976249E-01
3.569539E-01
2.798745E-01
4.558599E-01
5.308322E-01
5.884721E-01
6.946962E-01
1.163924E-01
3.692708E-02
7.703212E-01
7.394935E-01
-1.154959E-02
6.401862E-01
5.660642E-01
4.814310E-01
6.261154E-01
4.166504E-01
3.213278E-01
6.213723E-01
2.498809E-01
1.976249E-01
9.739586E-02
6.014363E-02
1.275633E-02
-1.714928E-02
-3.680372E-02
1.622486E-01
2.498809E-01
3.269198E-01
4.231706E-01
5.206134E-01
6.393458E-01
7.210185E-01
8.617081E-02
4.397772E-02
8.237067E-01
7.878363E-01
-3.572915E-02
6.946962E-01
5.884721E-01
5.308322E-01
6.673340E-01
4.558599E-01
3.569539E-01
2.798745E-01
1.976249E-01
1.163924E-01
3.692708E-02
-1.154959E-02
-3.680372E-02
-5.599806E-02
1.670310E-01
2.620570E-01
3.569539E-01
4.231706E-01
5.637779E-01
6.986745E-01
6.256914E-01
7.813359E-01
8.852395E-02
1.789868E-02
8.248262E-01
8.683666E-01
-4.732983E-02
7.210185E-01
7.394935E-01
6.393458E-01
5.206134E-01
7.251703E-01
4.231706E-01
3.269198E-01
2.498809E-01
1.622486E-01
8.617081E-02
4.397772E-02
-3.572915E-02
-5.599806E-02
-9.333794E-02
1.248545E-01
2.141520E-01
3.213278E-01
4.558599E-01
5.637779E-01
7.327954E-01
6.579539E-01
8.141100E-01
4.555156E-02
-2.208148E-02
8.628152E-01
8.932742E-01
-9.102038E-02
7.813359E-01
6.986745E-01
7.878363E-01
6.256914E-01
5.637779E-01
7.703212E-01
4.231706E-01
3.569539E-01
2.620570E-01
1.670310E-01
8.852395E-02
1.789868E-02
-4.732983E-02
-9.333794E-02
-1.176119E-01
1.287106E-01
1.917715E-01
3.472558E-01
5.206134E-01
4.166504E-01
6.256914E-01
7.055494E-01
7.896276E-01
8.604757E-01
2.826681E-02
-4.767922E-02
9.243459E-01
-1.156602E-01
8.141100E-01
7.327954E-01
8.248262E-01
6.579539E-01
5.637779E-01
8.237067E-01
4.558599E-01
3.213278E-01
2.141520E-01
1.248545E-01
4.555156E-02
-2.208148E-02
-9.102038E-02
-1.176119E-01
-1.640115E-01
7.252274E-02
2.020142E-01
3.201276E-01
5.308322E-01
4.296410E-01
6.393458E-01
7.327954E-01
7.896276E-01
8.896515E-01
-2.544558E-02
-9.610881E-02
9.487781E-01
9.238785E-01
-1.643194E-01
8.604757E-01
7.896276E-01
7.055494E-01
8.628152E-01
6.256914E-01
5.206134E-01
8.683666E-01
4.166504E-01
3.472558E-01
1.917715E-01
1.287106E-01
2.826681E-02
-4.767922E-02
-1.156602E-01
-1.640115E-01
-2.028380E-01
7.639071E-02
2.623497E-01
1.432240E-01
3.748861E-01
4.814310E-01
5.884721E-01
6.986745E-01
8.141100E-01
8.896515E-01
-6.922933E-02
-1.198444E-01
9.683816E-01
9.412530E-01
-2.087868E-01
8.896515E-01
7.896276E-01
7.327954E-01
8.932742E-01
6.393458E-01
5.308322E-01
4.296410E-01
3.201276E-01
2.020142E-01
7.252274E-02
-2.544558E-02
-9.610881E-02
-1.643194E-01
-2.028380E-01
-2.549171E-01
2.842688E-02
2.493038E-01
1.362611E-01
3.667341E-01
4.930450E-01
5.660642E-01
7.210185E-01
8.604757E-01
7.813359E-01
9.238785E-01
-8.180754E-02
-1.859126E-01
9.611676E-01
9.826978E-01
-2.614379E-01
8.896515E-01
9.238785E-01
8.141100E-01
6.986745E-01
9.243459E-01
5.884721E-01
4.814310E-01
3.748861E-01
2.623497E-01
1.432240E-01
7.639071E-02
-6.922933E-02
-1.198444E-01
-2.087868E-01
-2.549171E-01
-3.020398E-01
6.806537E-02
-3.505414E-02
1.845305E-01
2.994372E-01
4.301502E-01
5.794896E-01
6.946962E-01
8.628152E-01
7.878363E-01
9.243459E-01
-1.515032E-01
-2.053005E-01
9.683816E-01
9.826978E-01
-3.202930E-01
9.238785E-01
8.604757E-01
9.412530E-01
7.813359E-01
7.210185E-01
9.487781E-01
5.660642E-01
4.930450E-01
3.667341E-01
2.493038E-01
1.362611E-01
2.842688E-02
-8.180754E-02
-1.859126E-01
-2.614379E-01
-3.020398E-01
-3.490324E-01
3.906683E-02
-7.038505E-02
1.775712E-01
2.560113E-01
4.420970E-01
6.401862E-01
5.194152E-01
7.394935E-01
8.248262E-01
8.932742E-01
9.487781E-01
-1.779661E-01
-2.668336E-01
-3.529669E-01
9.243459E-01
8.628152E-01
9.611676E-01
7.878363E-01
6.946962E-01
9.683816E-01
5.794896E-01
4.301502E-01
2.994372E-01
1.845305E-01
6.806537E-02
-3.505414E-02
-1.515032E-01
-2.053005E-01
-3.202930E-01
-3.490324E-01
-4.153093E-01
9.759737E-02
-3.443973E-02
-1.411381E-01
2.575649E-01
3.944265E-01
6.261154E-01
5.150853E-01
7.251703E-01
8.237067E-01
8.683666E-01
-2.485176E-01
-3.270773E-01
-4.230238E-01
9.487781E-01
8.932742E-01
8.248262E-01
9.683816E-01
7.394935E-01
6.401862E-01
9.826978E-01
5.194152E-01
4.420970E-01
2.560113E-01
1.775712E-01
3.906683E-02
-7.038505E-02
-1.779661E-01
-2.668336E-01
-3.529669E-01
-4.153093E-01
-4.567623E-01
9.668411E-02
-9.202122E-02
-1.652079E-01
3.231297E-01
1.783345E-01
4.435576E-01
5.634495E-01
6.673340E-01
7.703212E-01
-2.936854E-01
-3.798987E-01
-4.642100E-01
8.683666E-01
8.237067E-01
9.826978E-01
7.251703E-01
6.261154E-01
5.150853E-01
3.944265E-01
2.575649E-01
9.759737E-02
-3.443973E-02
-1.411381E-01
-2.485176E-01
-3.270773E-01
-4.230238E-01
-4.567623E-01
-5.224819E-01
3.537540E-02
-1.030619E-01
-2.496012E-01
2.945162E-01
1.634763E-01
4.158762E-01
5.536290E-01
6.213723E-01
-3.641518E-01
-4.447461E-01
-5.268773E-01
7.703212E-01
6.673340E-01
5.634495E-01
4.435576E-01
3.231297E-01
1.783345E-01
9.668411E-02
-9.202122E-02
-1.652079E-01
-2.936854E-01
-3.798987E-01
-4.642100E-01
-5.224819E-01
-5.699230E-01
8.097841E-02
-4.220310E-02
-1.897333E-01
-2.625533E-01
2.160391E-01
3.406688E-01
4.753143E-01
-4.263392E-01
-4.821993E-01
-5.818457E-01
6.213723E-01
5.536290E-01
4.158762E-01
2.945162E-01
1.634763E-01
3.537540E-02
-1.030619E-01
-2.496012E-01
-3.641518E-01
-4.447461E-01
-5.268773E-01
-5.699230E-01
-6.313387E-01
4.414378E-02
-8.148231E-02
-2.134038E-01
-3.289390E-01
1.992493E-01
2.807889E-01
-4.484329E-01
-5.591188E-01
-6.387011E-01
4.753143E-01
3.406688E-01
2.160391E-01
8.097841E-02
-4.220310E-02
-1.897333E-01
-2.625533E-01
-4.263392E-01
-4.821993E-01
-5.818457E-01
-6.313387E-01
-6.806440E-01
1.088728E-01
-3.714691E-02
-1.647866E-01
-2.942660E-01
-4.014412E-01
-5.284387E-01
-5.821567E-01
-6.973143E-01
2.807889E-01
1.992493E-01
4.414378E-02
-8.148231E-02
-2.134038E-01
-3.289390E-01
-4.484329E-01
-5.591188E-01
-6.387011E-01
-6.806440E-01
-7.255784E-01
-1.013964E-01
-1.855206E-01
-3.341190E-01
-4.454300E-01
-5.570104E-01
-6.439690E-01
-7.260030E-01
1.088728E-01
-3.714691E-02
-1.647866E-01
-2.942660E-01
-4.014412E-01
-5.284387E-01
-5.821567E-01
-6.973143E-01
-7.255784E-01
-7.831461E-01
-2.743048E-01
-4.099933E-01
-5.202300E-01
-6.250533E-01
-7.003656E-01
-7.871194E-01
-1.013964E-01
-1.855206E-01
-3.341190E-01
-4.454300E-01
-5.570104E-01
-6.439690E-01
-7.260030E-01
-7.831461E-01
-8.147861E-01
-4.684895E-01
-5.416813E-01
-6.617835E-01
-7.422430E-01
-8.155287E-01
-2.743048E-01
-4.099933E-01
-5.202300E-01
-6.250533E-01
-7.003656E-01
-7.871194E-01
-8.147861E-01
-8.614858E-01
-6.160663E-01
-7.215755E-01
-7.960852E-01
-8.604489E-01
-4.684895E-01
-5.416813E-01
-6.617835E-01
-7.422430E-01
-8.155287E-01
-8.614858E-01
-8.927778E-01
-7.659898E-01
-8.155445E-01
-8.889451E-01
-6.160663E-01
-7.215755E-01
-7.960852E-01
-8.604489E-01
-8.927778E-01
-9.261602E-01
-8.642339E-01
-9.229101E-01
-7.659898E-01
-8.155445E-01
-8.889451E-01
-9.261602E-01
-9.509085E-01
-9.472456E-01
-8.642339E-01
-9.229101E-01
-9.509085E-01
-9.655073E-01
-9.472456E-01
-9.655073E-01
-9.809669E-01
-9.809669E-01
