# vtk DataFile Version 2.0
Grille
ASCII
DATASET POLYDATA
POINTS 481 float
0.000000E+00 8.750000E-01 -8.763407E-01
6.250000E-02 8.750000E-01 -8.630724E-01
1.250000E-01 8.750000E-01 -8.108144E-01
1.250000E-01 9.375000E-01 -8.630724E-01
1.250000E-01 1.000000E+00 -8.763407E-01
6.250000E-02 1.000000E+00 -9.337612E-01
0.000000E+00 1.000000E+00 -9.485493E-01
0.000000E+00 9.375000E-01 -9.337612E-01
3.750000E-02 9.125000E-01 -9.113485E-01
8.125000E-02 9.187500E-01 -8.907937E-01
8.750000E-02 9.625000E-01 -9.113485E-01
4.375000E-02 9.562500E-01 -9.352244E-01
1.875000E-01 8.750000E-01 -7.307953E-01
2.500000E-01 8.750000E-01 -6.199147E-01
2.500000E-01 9.375000E-01 -6.598616E-01
2.500000E-01 1.000000E+00 -6.684935E-01
1.875000E-01 1.000000E+00 -7.913704E-01
1.625000E-01 9.125000E-01 -8.014408E-01
2.062500E-01 9.187500E-01 -7.324420E-01
2.125000E-01 9.625000E-01 -7.418432E-01
1.687500E-01 9.562500E-01 -8.157076E-01
0.000000E+00 7.500000E-01 -6.684935E-01
6.250000E-02 7.500000E-01 -6.598616E-01
1.250000E-01 7.500000E-01 -6.199147E-01
1.250000E-01 8.125000E-01 -7.307953E-01
0.000000E+00 8.125000E-01 -7.913704E-01
3.750000E-02 7.875000E-01 -7.418432E-01
8.125000E-02 7.937500E-01 -7.324420E-01
8.750000E-02 8.375000E-01 -8.014408E-01
4.375000E-02 8.312500E-01 -8.157076E-01
1.875000E-01 7.500000E-01 -5.591497E-01
2.500000E-01 7.500000E-01 -4.747831E-01
2.500000E-01 8.125000E-01 -5.591497E-01
1.625000E-01 7.875000E-01 -6.519060E-01
2.062500E-01 7.937500E-01 -6.018484E-01
2.125000E-01 8.375000E-01 -6.519060E-01
1.687500E-01 8.312500E-01 -7.098711E-01
3.125000E-01 8.750000E-01 -4.873871E-01
3.750000E-01 8.750000E-01 -3.350303E-01
3.750000E-01 9.375000E-01 -3.562973E-01
3.750000E-01 1.000000E+00 -3.588401E-01
3.125000E-01 1.000000E+00 -5.278386E-01
2.875000E-01 9.125000E-01 -5.689980E-01
3.312500E-01 9.187500E-01 -4.623764E-01
3.375000E-01 9.625000E-01 -4.588208E-01
2.937500E-01 9.562500E-01 -5.715582E-01
4.375000E-01 8.750000E-01 -1.707368E-01
5.000000E-01 8.750000E-01 -2.710106E-04
5.000000E-01 9.375000E-01 1.707679E-04
5.000000E-01 1.000000E+00 3.785858E-03
4.375000E-01 1.000000E+00 -1.852564E-01
4.125000E-01 9.125000E-01 -2.508998E-01
4.562500E-01 9.187500E-01 -1.227447E-01
4.625000E-01 9.625000E-01 -1.073070E-01
4.187500E-01 9.562500E-01 -2.408165E-01
3.125000E-01 7.500000E-01 -3.730802E-01
3.750000E-01 7.500000E-01 -2.570427E-01
3.750000E-01 8.125000E-01 -3.025855E-01
2.875000E-01 7.875000E-01 -4.631099E-01
3.312500E-01 7.937500E-01 -3.804447E-01
3.375000E-01 8.375000E-01 -4.039161E-01
2.937500E-01 8.312500E-01 -4.974941E-01
4.375000E-01 7.500000E-01 -1.307512E-01
5.000000E-01 7.500000E-01 -7.352173E-04
5.000000E-01 8.125000E-01 -5.757780E-04
4.125000E-01 7.875000E-01 -2.040195E-01
4.562500E-01 7.937500E-01 -1.015847E-01
4.625000E-01 8.375000E-01 -9.498226E-02
4.187500E-01 8.312500E-01 -2.100157E-01
0.000000E+00 6.250000E-01 -3.588401E-01
6.250000E-02 6.250000E-01 -3.562973E-01
1.250000E-01 6.250000E-01 -3.350303E-01
1.250000E-01 6.875000E-01 -4.873871E-01
0.000000E+00 6.875000E-01 -5.278386E-01
3.750000E-02 6.625000E-01 -4.588208E-01
8.125000E-02 6.687500E-01 -4.623764E-01
8.750000E-02 7.125000E-01 -5.689980E-01
4.375000E-02 7.062500E-01 -5.715582E-01
1.875000E-01 6.250000E-01 -3.025855E-01
2.500000E-01 6.250000E-01 -2.570427E-01
2.500000E-01 6.875000E-01 -3.730802E-01
1.625000E-01 6.625000E-01 -4.039161E-01
2.062500E-01 6.687500E-01 -3.804447E-01
2.125000E-01 7.125000E-01 -4.631099E-01
1.687500E-01 7.062500E-01 -4.974941E-01
0.000000E+00 5.000000E-01 3.785858E-03
6.250000E-02 5.000000E-01 1.707679E-04
1.250000E-01 5.000000E-01 -2.710106E-04
1.250000E-01 5.625000E-01 -1.707368E-01
0.000000E+00 5.625000E-01 -1.852564E-01
3.750000E-02 5.375000E-01 -1.073070E-01
8.125000E-02 5.437500E-01 -1.227447E-01
8.750000E-02 5.875000E-01 -2.508998E-01
4.375000E-02 5.812500E-01 -2.408165E-01
1.875000E-01 5.000000E-01 -5.757780E-04
2.500000E-01 5.000000E-01 -7.352173E-04
2.500000E-01 5.625000E-01 -1.307512E-01
1.625000E-01 5.375000E-01 -9.498226E-02
2.062500E-01 5.437500E-01 -1.015847E-01
2.125000E-01 5.875000E-01 -2.040195E-01
1.687500E-01 5.812500E-01 -2.100157E-01
3.125000E-01 6.250000E-01 -2.019974E-01
3.750000E-01 6.250000E-01 -1.394017E-01
3.750000E-01 6.875000E-01 -2.019974E-01
2.875000E-01 6.625000E-01 -2.870155E-01
3.312500E-01 6.687500E-01 -2.405284E-01
3.375000E-01 7.125000E-01 -2.870155E-01
2.937500E-01 7.062500E-01 -3.480436E-01
4.375000E-01 6.250000E-01 -7.065308E-02
5.000000E-01 6.250000E-01 -6.604346E-04
5.000000E-01 6.875000E-01 -3.972297E-04
4.125000E-01 6.625000E-01 -1.263423E-01
4.562500E-01 6.687500E-01 -6.459638E-02
4.625000E-01 7.125000E-01 -6.784848E-02
4.187500E-01 7.062500E-01 -1.470515E-01
3.125000E-01 5.000000E-01 -3.972297E-04
3.750000E-01 5.000000E-01 -6.604346E-04
3.750000E-01 5.625000E-01 -7.065308E-02
2.875000E-01 5.375000E-01 -6.784848E-02
3.312500E-01 5.437500E-01 -6.459638E-02
3.375000E-01 5.875000E-01 -1.263423E-01
2.937500E-01 5.812500E-01 -1.470515E-01
4.375000E-01 5.000000E-01 2.616340E-05
5.000000E-01 5.000000E-01 -5.789744E-04
5.000000E-01 5.625000E-01 2.616340E-05
4.125000E-01 5.375000E-01 -2.981139E-02
4.562500E-01 5.437500E-01 -1.776435E-02
4.625000E-01 5.875000E-01 -2.981139E-02
4.187500E-01 5.812500E-01 -6.209997E-02
5.625000E-01 8.750000E-01 1.712722E-01
6.250000E-01 8.750000E-01 3.344211E-01
6.250000E-01 9.375000E-01 3.561474E-01
6.250000E-01 1.000000E+00 3.653022E-01
5.625000E-01 1.000000E+00 1.846825E-01
5.375000E-01 9.125000E-01 1.047995E-01
5.812500E-01 9.187500E-01 2.349926E-01
5.875000E-01 9.625000E-01 2.595893E-01
5.437500E-01 9.562500E-01 1.260556E-01
6.875000E-01 8.750000E-01 4.882449E-01
7.500000E-01 8.750000E-01 6.199366E-01
7.500000E-01 9.375000E-01 6.598241E-01
7.500000E-01 1.000000E+00 6.732716E-01
6.875000E-01 1.000000E+00 5.275203E-01
6.625000E-01 9.125000E-01 4.451278E-01
7.062500E-01 9.187500E-01 5.579495E-01
7.125000E-01 9.625000E-01 5.882722E-01
6.687500E-01 9.562500E-01 4.739823E-01
5.625000E-01 7.500000E-01 1.312128E-01
6.250000E-01 7.500000E-01 2.561836E-01
6.250000E-01 8.125000E-01 3.016481E-01
5.375000E-01 7.875000E-01 8.547525E-02
5.812500E-01 7.937500E-01 1.925588E-01
5.875000E-01 8.375000E-01 2.277463E-01
5.437500E-01 8.312500E-01 1.092608E-01
6.875000E-01 7.500000E-01 3.741876E-01
7.500000E-01 7.500000E-01 4.747088E-01
7.500000E-01 8.125000E-01 5.590802E-01
6.625000E-01 7.875000E-01 3.629628E-01
7.062500E-01 7.937500E-01 4.581458E-01
7.125000E-01 8.375000E-01 5.165737E-01
6.687500E-01 8.312500E-01 4.124659E-01
8.125000E-01 8.750000E-01 7.318269E-01
8.750000E-01 8.750000E-01 8.116149E-01
8.750000E-01 9.375000E-01 8.637623E-01
8.750000E-01 1.000000E+00 8.794441E-01
8.125000E-01 1.000000E+00 7.915252E-01
7.875000E-01 9.125000E-01 7.189197E-01
8.312500E-01 9.187500E-01 7.968093E-01
8.375000E-01 9.625000E-01 8.284714E-01
7.937500E-01 9.562500E-01 7.509640E-01
9.375000E-01 8.750000E-01 8.637623E-01
1.000000E+00 8.750000E-01 8.794441E-01
1.000000E+00 9.375000E-01 9.341564E-01
1.000000E+00 1.000000E+00 9.505461E-01
9.375000E-01 1.000000E+00 9.341564E-01
9.125000E-01 9.125000E-01 8.831135E-01
9.562500E-01 9.187500E-01 9.134549E-01
9.625000E-01 9.625000E-01 9.414200E-01
9.187500E-01 9.562500E-01 9.134549E-01
8.125000E-01 7.500000E-01 5.590802E-01
8.750000E-01 7.500000E-01 6.199366E-01
8.750000E-01 8.125000E-01 7.318269E-01
7.875000E-01 7.875000E-01 5.851939E-01
8.312500E-01 7.937500E-01 6.538631E-01
8.375000E-01 8.375000E-01 7.277041E-01
7.937500E-01 8.312500E-01 6.538631E-01
9.375000E-01 7.500000E-01 6.598241E-01
1.000000E+00 7.500000E-01 6.732716E-01
1.000000E+00 8.125000E-01 7.915252E-01
9.125000E-01 7.875000E-01 7.189197E-01
9.562500E-01 7.937500E-01 7.509640E-01
9.625000E-01 8.375000E-01 8.284714E-01
9.187500E-01 8.312500E-01 7.968093E-01
5.625000E-01 6.250000E-01 7.097297E-02
6.250000E-01 6.250000E-01 1.383859E-01
6.250000E-01 6.875000E-01 2.018505E-01
5.375000E-01 6.625000E-01 5.319255E-02
5.812500E-01 6.687500E-01 1.211095E-01
5.875000E-01 7.125000E-01 1.615114E-01
5.437500E-01 7.062500E-01 7.614956E-02
6.875000E-01 6.250000E-01 2.018505E-01
7.500000E-01 6.250000E-01 2.561836E-01
7.500000E-01 6.875000E-01 3.741876E-01
6.625000E-01 6.625000E-01 2.252052E-01
7.062500E-01 6.687500E-01 2.888588E-01
7.125000E-01 7.125000E-01 3.672117E-01
6.687500E-01 7.062500E-01 2.888588E-01
5.625000E-01 5.000000E-01 2.616340E-05
6.250000E-01 5.000000E-01 -6.604346E-04
6.250000E-01 5.625000E-01 7.097297E-02
5.375000E-01 5.375000E-01 1.273968E-02
5.812500E-01 5.437500E-01 3.161610E-02
5.875000E-01 5.875000E-01 7.102245E-02
5.437500E-01 5.812500E-01 3.161610E-02
6.875000E-01 5.000000E-01 -3.972297E-04
7.500000E-01 5.000000E-01 -7.352173E-04
7.500000E-01 5.625000E-01 1.312128E-01
6.625000E-01 5.375000E-01 5.319255E-02
7.062500E-01 5.437500E-01 7.614956E-02
7.125000E-01 5.875000E-01 1.615114E-01
6.687500E-01 5.812500E-01 1.211095E-01
8.125000E-01 6.250000E-01 3.016481E-01
8.750000E-01 6.250000E-01 3.344211E-01
8.750000E-01 6.875000E-01 4.882449E-01
7.875000E-01 6.625000E-01 3.629628E-01
8.312500E-01 6.687500E-01 4.124659E-01
8.375000E-01 7.125000E-01 5.165737E-01
7.937500E-01 7.062500E-01 4.581458E-01
9.375000E-01 6.250000E-01 3.561474E-01
1.000000E+00 6.250000E-01 3.653022E-01
1.000000E+00 6.875000E-01 5.275203E-01
9.125000E-01 6.625000E-01 4.451278E-01
9.562500E-01 6.687500E-01 4.739823E-01
9.625000E-01 7.125000E-01 5.882722E-01
9.187500E-01 7.062500E-01 5.579495E-01
8.125000E-01 5.000000E-01 -5.757780E-04
8.750000E-01 5.000000E-01 -2.710106E-04
8.750000E-01 5.625000E-01 1.712722E-01
7.875000E-01 5.375000E-01 8.547525E-02
8.312500E-01 5.437500E-01 1.092608E-01
8.375000E-01 5.875000E-01 2.277463E-01
7.937500E-01 5.812500E-01 1.925588E-01
9.375000E-01 5.000000E-01 1.707679E-04
1.000000E+00 5.000000E-01 3.785858E-03
1.000000E+00 5.625000E-01 1.846825E-01
9.125000E-01 5.375000E-01 1.047995E-01
9.562500E-01 5.437500E-01 1.260556E-01
9.625000E-01 5.875000E-01 2.595893E-01
9.187500E-01 5.812500E-01 2.349926E-01
0.000000E+00 3.750000E-01 3.653022E-01
6.250000E-02 3.750000E-01 3.561474E-01
[...]
CELL_DATA 896
SCALARS sol float 1
LOOKUP_TABLE default
-8.928413E-01
-8.959684E-01
-9.162331E-01
-8.600752E-01
-9.197531E-01
-8.637811E-01
-9.337459E-01
-8.362134E-01
-8.325821E-01
-9.197531E-01
-8.637811E-01
-8.335882E-01
-9.485493E-01
-7.889163E-01
-7.889645E-01
-9.337459E-01
-8.959684E-01
-8.335882E-01
-7.882593E-01
-9.485493E-01
-7.701295E-01
-7.406517E-01
-7.614160E-01
-9.162331E-01
-8.928413E-01
-7.882593E-01
-8.325821E-01
-7.576291E-01
-7.177672E-01
-6.976954E-01
-7.020714E-01
-8.600752E-01
-7.614160E-01
-7.576291E-01
-7.889645E-01
-7.015167E-01
-6.771169E-01
-6.398982E-01
-6.742179E-01
-8.362134E-01
-7.020714E-01
-7.015167E-01
-7.701295E-01
-6.577938E-01
-6.226656E-01
-5.957286E-01
-6.045048E-01
-6.175032E-01
-7.889163E-01
-6.771169E-01
-6.742179E-01
-6.577938E-01
-7.177672E-01
-6.103224E-01
-5.626316E-01
-5.233597E-01
-5.384468E-01
-5.623495E-01
-7.406517E-01
-6.226656E-01
-6.175032E-01
-6.103224E-01
-6.976954E-01
-5.509739E-01
-5.106904E-01
-5.407613E-01
-5.027643E-01
-4.518243E-01
-5.093744E-01
-5.626316E-01
-6.045048E-01
-5.623495E-01
-5.509739E-01
-6.398982E-01
-5.052874E-01
-4.330455E-01
-4.658995E-01
-4.299257E-01
-3.954492E-01
-4.484239E-01
-5.106904E-01
-5.407613E-01
-5.384468E-01
-5.093744E-01
-5.052874E-01
-5.957286E-01
-4.414791E-01
-3.873334E-01
-4.114557E-01
-4.295466E-01
-3.228895E-01
-4.085603E-01
-4.330455E-01
-4.658995E-01
-5.027643E-01
-4.484239E-01
-4.414791E-01
-5.233597E-01
-4.013919E-01
-3.179576E-01
-3.517569E-01
-3.670896E-01
-2.651973E-01
-2.846498E-01
-3.410583E-01
-3.873334E-01
-4.114557E-01
-4.295466E-01
-4.299257E-01
-4.085603E-01
-4.013919E-01
-4.518243E-01
-3.371863E-01
-2.536051E-01
-2.836575E-01
-3.159208E-01
-1.788631E-01
-2.061904E-01
-3.095008E-01
-3.179576E-01
-3.517569E-01
-3.670896E-01
-3.954492E-01
-3.410583E-01
-3.371863E-01
-2.915545E-01
-2.414310E-01
-1.831212E-01
-2.402390E-01
-2.578688E-01
-1.588068E-01
-9.688039E-02
-2.526035E-01
-2.536051E-01
-2.846498E-01
-2.836575E-01
-3.159208E-01
-3.228895E-01
-3.095008E-01
-2.915545E-01
-2.462150E-01
-1.593304E-01
-9.901660E-02
-1.717691E-01
-1.982010E-01
-7.785977E-02
-3.499013E-02
-2.015254E-01
-1.831212E-01
-2.414310E-01
-2.061904E-01
-2.402390E-01
-2.578688E-01
-2.651973E-01
-2.526035E-01
-2.462150E-01
-1.958844E-01
-1.360057E-01
-8.809743E-02
-4.004299E-02
-1.460526E-01
-1.796631E-01
4.228479E-02
-1.586271E-01
-9.901660E-02
-1.593304E-01
-1.588068E-01
-1.717691E-01
-1.982010E-01
-1.788631E-01
-2.015254E-01
-1.958844E-01
-1.583472E-01
-6.775056E-02
-3.302940E-02
3.363351E-02
-7.884720E-02
-1.156832E-01
1.047292E-01
7.765081E-02
-1.115288E-01
-4.004299E-02
-8.809743E-02
-1.360057E-01
-7.785977E-02
-1.460526E-01
-1.796631E-01
-9.688039E-02
-1.586271E-01
-1.583472E-01
-1.134357E-01
-3.368099E-02
3.753273E-02
9.308076E-02
-6.661533E-02
-9.264661E-02
1.926508E-01
1.579279E-01
-8.768723E-02
3.363351E-02
-3.302940E-02
-6.775056E-02
-3.499013E-02
-7.884720E-02
-1.156832E-01
-1.115288E-01
-1.134357E-01
-8.993959E-02
2.715200E-02
9.377134E-02
6.540167E-02
1.723659E-01
-2.456447E-02
-4.599836E-02
2.089999E-01
2.714822E-01
-4.560451E-02
9.308076E-02
7.765081E-02
3.753273E-02
-3.368099E-02
4.228479E-02
-6.661533E-02
-9.264661E-02
-8.768723E-02
-8.993959E-02
-5.391470E-02
7.367673E-02
1.716817E-01
1.315891E-01
2.489627E-01
2.722384E-02
-2.130785E-02
2.848070E-01
3.292691E-01
-3.440734E-02
1.723659E-01
9.377134E-02
1.579279E-01
6.540167E-02
2.715200E-02
1.047292E-01
-2.456447E-02
-4.599836E-02
-4.560451E-02
-5.391470E-02
-3.540355E-02
6.977369E-02
1.384082E-01
1.783887E-01
2.477198E-01
3.123319E-01
4.384325E-02
1.718393E-02
4.014762E-01
-1.113627E-02
2.489627E-01
1.716817E-01
2.089999E-01
1.315891E-01
7.367673E-02
1.926508E-01
2.722384E-02
-2.130785E-02
-3.440734E-02
-3.540355E-02
-1.650148E-02
1.243123E-01
1.951865E-01
2.408793E-01
2.891826E-01
3.805151E-01
8.532715E-02
4.231127E-02
4.589814E-01
4.281959E-01
1.220193E-02
3.123319E-01
2.477198E-01
1.783887E-01
2.848070E-01
1.384082E-01
6.977369E-02
2.714822E-01
4.384325E-02
1.718393E-02
-1.113627E-02
-1.650148E-02
-5.108985E-03
1.204477E-01
1.854440E-01
2.534846E-01
3.542203E-01
4.270955E-01
8.302866E-02
3.547535E-02
5.353727E-01
4.980974E-01
1.545031E-02
3.805151E-01
2.891826E-01
2.408793E-01
3.292691E-01
1.951865E-01
1.243123E-01
8.532715E-02
4.231127E-02
1.220193E-02
-5.108985E-03
3.951036E-03
1.612298E-01
2.067526E-01
3.091711E-01
4.153408E-01
3.621319E-01
5.023663E-01
1.122528E-01
5.785231E-02
5.449614E-01
6.008960E-01
2.675942E-02
4.270955E-01
4.281959E-01
3.542203E-01
2.534846E-01
4.014762E-01
1.854440E-01
1.204477E-01
8.302866E-02
3.547535E-02
1.545031E-02
3.951036E-03
3.951036E-03
1.566034E-01
2.531943E-01
3.357104E-01
4.767510E-01
4.152632E-01
5.603579E-01
9.385105E-02
4.531856E-02
6.055507E-01
6.454052E-01
1.545031E-02
5.023663E-01
4.153408E-01
4.980974E-01
3.621319E-01
3.091711E-01
4.589814E-01
2.067526E-01
1.612298E-01
1.122528E-01
5.785231E-02
2.675942E-02
3.951036E-03
-5.108985E-03
1.908365E-01
3.105251E-01
2.413620E-01
4.029112E-01
4.653373E-01
5.476781E-01
6.191542E-01
9.385105E-02
5.785231E-02
7.015000E-01
1.220193E-02
5.603579E-01
4.767510E-01
5.449614E-01
4.152632E-01
3.357104E-01
5.353727E-01
2.531943E-01
1.566034E-01
9.385105E-02
4.531856E-02
1.545031E-02
-5.108985E-03
-1.650148E-02
1.908365E-01
3.450919E-01
2.703190E-01
4.408749E-01
5.131424E-01
5.689037E-01
6.717987E-01
1.122528E-01
3.547535E-02
7.452853E-01
7.153356E-01
-1.113627E-02
6.191542E-01
5.476781E-01
4.653373E-01
6.055507E-01
4.029112E-01
3.105251E-01
6.008960E-01
2.413620E-01
1.908365E-01
9.385105E-02
5.785231E-02
1.220193E-02
-1.650148E-02
-3.540355E-02
1.566034E-01
2.413620E-01
3.157198E-01
4.094521E-01
5.034263E-01
6.182556E-01
6.975523E-01
8.302866E-02
4.231127E-02
7.972946E-01
7.624950E-01
-3.440734E-02
6.717987E-01
5.689037E-01
5.131424E-01
6.454052E-01
4.408749E-01
3.450919E-01
2.703190E-01
1.908365E-01
1.122528E-01
3.547535E-02
-1.113627E-02
-3.540355E-02
-5.391470E-02
1.612298E-01
2.531943E-01
3.450919E-01
4.094521E-01
5.450818E-01
6.757926E-01
6.050156E-01
7.562735E-01
8.532715E-02
1.718393E-02
7.983967E-01
8.405515E-01
-4.560451E-02
6.975523E-01
7.153356E-01
6.182556E-01
5.034263E-01
7.015000E-01
4.094521E-01
3.157198E-01
2.413620E-01
1.566034E-01
8.302866E-02
4.231127E-02
-3.440734E-02
-5.391470E-02
-8.993959E-02
1.204477E-01
2.067526E-01
3.105251E-01
4.408749E-01
5.450818E-01
7.089052E-01
6.361602E-01
7.880130E-01
4.384325E-02
-2.130785E-02
8.351890E-01
8.646040E-01
-8.768723E-02
7.562735E-01
6.757926E-01
7.624950E-01
6.050156E-01
5.450818E-01
7.452853E-01
4.094521E-01
3.450919E-01
2.531943E-01
1.612298E-01
8.532715E-02
1.718393E-02
-4.560451E-02
-8.993959E-02
-1.134357E-01
1.243123E-01
1.854440E-01
3.357104E-01
5.034263E-01
4.029112E-01
6.050156E-01
6.822828E-01
7.643807E-01
8.329564E-01
2.722384E-02
-4.599836E-02
8.945697E-01
-1.115288E-01
7.880130E-01
7.089052E-01
7.983967E-01
6.361602E-01
5.450818E-01
7.972946E-01
4.408749E-01
3.105251E-01
2.067526E-01
1.204477E-01
4.384325E-02
-2.130785E-02
-8.768723E-02
-1.134357E-01
-1.583472E-01
6.977369E-02
1.951865E-01
3.091711E-01
5.131424E-01
4.152632E-01
6.182556E-01
7.089052E-01
7.643807E-01
8.611095E-01
-2.456447E-02
-9.264661E-02
9.180513E-01
8.941264E-01
-1.586271E-01
8.329564E-01
7.643807E-01
6.822828E-01
8.351890E-01
6.050156E-01
5.034263E-01
8.405515E-01
4.029112E-01
3.357104E-01
1.854440E-01
1.243123E-01
2.722384E-02
-4.599836E-02
-1.115288E-01
-1.583472E-01
-1.958844E-01
7.367673E-02
2.534846E-01
1.384082E-01
3.621319E-01
4.653373E-01
5.689037E-01
6.757926E-01
7.880130E-01
8.611095E-01
-6.661533E-02
-1.156832E-01
9.368449E-01
9.108276E-01
-2.015254E-01
8.611095E-01
7.643807E-01
7.089052E-01
8.646040E-01
6.182556E-01
5.131424E-01
4.152632E-01
3.091711E-01
1.951865E-01
6.977369E-02
-2.456447E-02
-9.264661E-02
-1.586271E-01
-1.958844E-01
-2.462150E-01
2.715200E-02
2.408793E-01
1.315891E-01
3.542203E-01
4.767510E-01
5.476781E-01
6.975523E-01
8.329564E-01
7.562735E-01
8.941264E-01
-7.884720E-02
-1.796631E-01
9.299388E-01
9.505461E-01
-2.526035E-01
8.611095E-01
8.941264E-01
7.880130E-01
6.757926E-01
8.945697E-01
5.689037E-01
4.653373E-01
3.621319E-01
2.534846E-01
1.384082E-01
7.367673E-02
-6.661533E-02
-1.156832E-01
-2.015254E-01
-2.462150E-01
-2.915545E-01
6.540167E-02
-3.368099E-02
1.783887E-01
2.891826E-01
4.153408E-01
5.603579E-01
6.717987E-01
8.351890E-01
7.624950E-01
8.945697E-01
-1.460526E-01
-1.982010E-01
9.368449E-01
9.505461E-01
-3.095008E-01
8.941264E-01
8.329564E-01
9.108276E-01
7.562735E-01
6.975523E-01
9.180513E-01
5.476781E-01
4.767510E-01
3.542203E-01
2.408793E-01
1.315891E-01
2.715200E-02
-7.884720E-02
-1.796631E-01
-2.526035E-01
-2.915545E-01
-3.371863E-01
3.753273E-02
-6.775056E-02
1.716817E-01
2.477198E-01
4.270955E-01
6.191542E-01
5.023663E-01
7.153356E-01
7.983967E-01
8.646040E-01
9.180513E-01
-1.717691E-01
-2.578688E-01
-3.410583E-01
8.945697E-01
8.351890E-01
9.299388E-01
7.624950E-01
6.717987E-01
9.368449E-01
5.603579E-01
4.153408E-01
2.891826E-01
1.783887E-01
6.540167E-02
-3.368099E-02
-1.460526E-01
-1.982010E-01
-3.095008E-01
-3.371863E-01
-4.013919E-01
9.377134E-02
-3.302940E-02
-1.360057E-01
2.489627E-01
3.805151E-01
6.055507E-01
4.980974E-01
7.015000E-01
7.972946E-01
8.405515E-01
-2.402390E-01
-3.159208E-01
-4.085603E-01
9.180513E-01
8.646040E-01
7.983967E-01
9.368449E-01
7.153356E-01
6.191542E-01
9.505461E-01
5.023663E-01
4.270955E-01
2.477198E-01
1.716817E-01
3.753273E-02
-6.775056E-02
-1.717691E-01
-2.578688E-01
-3.410583E-01
-4.013919E-01
-4.414791E-01
9.308076E-02
-8.809743E-02
-1.593304E-01
3.123319E-01
1.723659E-01
4.281959E-01
5.449614E-01
6.454052E-01
7.452853E-01
-2.836575E-01
-3.670896E-01
-4.484239E-01
8.405515E-01
7.972946E-01
9.505461E-01
7.015000E-01
6.055507E-01
4.980974E-01
3.805151E-01
2.489627E-01
9.377134E-02
-3.302940E-02
-1.360057E-01
-2.402390E-01
-3.159208E-01
-4.085603E-01
-4.414791E-01
-5.052874E-01
3.363351E-02
-9.901660E-02
-2.414310E-01
2.848070E-01
1.579279E-01
4.014762E-01
5.353727E-01
6.008960E-01
-3.517569E-01
-4.295466E-01
-5.093744E-01
7.452853E-01
6.454052E-01
5.449614E-01
4.281959E-01
3.123319E-01
1.723659E-01
9.308076E-02
-8.809743E-02
-1.593304E-01
-2.836575E-01
-3.670896E-01
-4.484239E-01
-5.052874E-01
-5.509739E-01
7.765081E-02
-4.004299E-02
-1.831212E-01
-2.536051E-01
2.089999E-01
3.292691E-01
4.589814E-01
-4.114557E-01
-4.658995E-01
-5.623495E-01
6.008960E-01
5.353727E-01
4.014762E-01
2.848070E-01
1.579279E-01
3.363351E-02
-9.901660E-02
-2.414310E-01
-3.517569E-01
-4.295466E-01
-5.093744E-01
-5.509739E-01
-6.103224E-01
4.228479E-02
-7.785977E-02
-2.061904E-01
-3.179576E-01
1.926508E-01
2.714822E-01
-4.330455E-01
-5.407613E-01
-6.175032E-01
4.589814E-01
3.292691E-01
2.089999E-01
7.765081E-02
-4.004299E-02
-1.831212E-01
-2.536051E-01
-4.114557E-01
-4.658995E-01
-5.623495E-01
-6.103224E-01
-6.577938E-01
1.047292E-01
-3.499013E-02
-1.588068E-01
-2.846498E-01
-3.873334E-01
-5.106904E-01
-5.626316E-01
-6.742179E-01
2.714822E-01
1.926508E-01
4.228479E-02
-7.785977E-02
-2.061904E-01
-3.179576E-01
-4.330455E-01
-5.407613E-01
-6.175032E-01
-6.577938E-01
-7.015167E-01
-9.688039E-02
-1.788631E-01
-3.228895E-01
-4.299257E-01
-5.384468E-01
-6.226656E-01
-7.020714E-01
1.047292E-01
-3.499013E-02
-1.588068E-01
-2.846498E-01
-3.873334E-01
-5.106904E-01
-5.626316E-01
-6.742179E-01
-7.015167E-01
-7.576291E-01
-2.651973E-01
-3.954492E-01
-5.027643E-01
-6.045048E-01
-6.771169E-01
-7.614160E-01
-9.688039E-02
-1.788631E-01
-3.228895E-01
-4.299257E-01
-5.384468E-01
-6.226656E-01
-7.020714E-01
-7.576291E-01
-7.882593E-01
-4.518243E-01
-5.233597E-01
-6.398982E-01
-7.177672E-01
-7.889645E-01
-2.651973E-01
-3.954492E-01
-5.027643E-01
-6.045048E-01
-6.771169E-01
-7.614160E-01
-7.882593E-01
-8.335882E-01
-5.957286E-01
-6.976954E-01
-7.701295E-01
-8.325821E-01
-4.518243E-01
-5.233597E-01
-6.398982E-01
-7.177672E-01
-7.889645E-01
-8.335882E-01
-8.637811E-01
-7.406517E-01
-7.889163E-01
-8.600752E-01
-5.957286E-01
-6.976954E-01
-7.701295E-01
-8.325821E-01
-8.637811E-01
-8.959684E-01
-8.362134E-01
-8.928413E-01
-7.406517E-01
-7.889163E-01
-8.600752E-01
-8.959684E-01
-9.197531E-01
-9.162331E-01
-8.362134E-01
-8.928413E-01
-9.197531E-01
-9.337459E-01
-9.162331E-01
-9.337459E-01
-9.485493E-01
-9.485493E-01
