# vtk DataFile Version 2.0
Grille
ASCII
DATASET POLYDATA
POINTS 481 float
0.000000E+00 8.750000E-01 -7.937406E-01
6.250000E-02 8.750000E-01 -7.818854E-01
1.250000E-01 8.750000E-01 -7.349407E-01
1.250000E-01 9.375000E-01 -7.818854E-01
1.250000E-01 1.000000E+00 -7.937406E-01
6.250000E-02 1.000000E+00 -8.449495E-01
0.000000E+00 1.000000E+00 -8.580902E-01
0.000000E+00 9.375000E-01 -8.449495E-01
3.750000E-02 9.125000E-01 -8.249922E-01
8.125000E-02 9.187500E-01 -8.066724E-01
8.750000E-02 9.625000E-01 -8.249922E-01
4.375000E-02 9.562500E-01 -8.462486E-01
1.875000E-01 8.750000E-01 -6.627638E-01
2.500000E-01 8.750000E-01 -5.619087E-01
2.500000E-01 9.375000E-01 -5.983614E-01
2.500000E-01 1.000000E+00 -6.062176E-01
1.875000E-01 1.000000E+00 -7.175747E-01
1.625000E-01 9.125000E-01 -7.265834E-01
2.062500E-01 9.187500E-01 -6.642899E-01
2.125000E-01 9.625000E-01 -6.728822E-01
1.687500E-01 9.562500E-01 -7.394213E-01
0.000000E+00 7.500000E-01 -6.062176E-01
6.250000E-02 7.500000E-01 -5.983614E-01
1.250000E-01 7.500000E-01 -5.619087E-01
1.250000E-01 8.125000E-01 -6.627638E-01
0.000000E+00 8.125000E-01 -7.175747E-01
3.750000E-02 7.875000E-01 -6.728822E-01
8.125000E-02 7.937500E-01 -6.642899E-01
8.750000E-02 8.375000E-01 -7.265834E-01
4.375000E-02 8.312500E-01 -7.394213E-01
1.875000E-01 7.500000E-01 -5.064773E-01
2.500000E-01 7.500000E-01 -4.296497E-01
2.500000E-01 8.125000E-01 -5.064773E-01
1.625000E-01 7.875000E-01 -5.911664E-01
2.062500E-01 7.937500E-01 -5.455315E-01
2.125000E-01 8.375000E-01 -5.911664E-01
1.687500E-01 8.312500E-01 -6.438491E-01
3.125000E-01 8.750000E-01 -4.412102E-01
3.750000E-01 8.750000E-01 -3.029889E-01
3.750000E-01 9.375000E-01 -3.222566E-01
3.750000E-01 1.000000E+00 -3.246355E-01
3.125000E-01 1.000000E+00 -4.780587E-01
2.875000E-01 9.125000E-01 -5.154737E-01
3.312500E-01 9.187500E-01 -4.184667E-01
3.375000E-01 9.625000E-01 -4.152618E-01
2.937500E-01 9.562500E-01 -5.177739E-01
4.375000E-01 8.750000E-01 -1.542503E-01
5.000000E-01 8.750000E-01 -1.922514E-04
5.000000E-01 9.375000E-01 2.009640E-04
5.000000E-01 1.000000E+00 3.413652E-03
4.375000E-01 1.000000E+00 -1.674422E-01
4.125000E-01 9.125000E-01 -2.267399E-01
4.562500E-01 9.187500E-01 -1.108722E-01
4.625000E-01 9.625000E-01 -9.696579E-02
4.187500E-01 9.562500E-01 -2.176177E-01
3.125000E-01 7.500000E-01 -3.373656E-01
3.750000E-01 7.500000E-01 -2.321489E-01
3.750000E-01 8.125000E-01 -2.734877E-01
2.875000E-01 7.875000E-01 -4.190832E-01
3.312500E-01 7.937500E-01 -3.441277E-01
3.375000E-01 8.375000E-01 -3.654204E-01
2.937500E-01 8.312500E-01 -4.503694E-01
4.375000E-01 7.500000E-01 -1.179444E-01
5.000000E-01 7.500000E-01 -6.003963E-04
5.000000E-01 8.125000E-01 -4.263249E-04
4.125000E-01 7.875000E-01 -1.842324E-01
4.562500E-01 7.937500E-01 -9.169276E-02
4.625000E-01 8.375000E-01 -8.578469E-02
4.187500E-01 8.312500E-01 -1.896916E-01
0.000000E+00 6.250000E-01 -3.246355E-01
6.250000E-02 6.250000E-01 -3.222566E-01
1.250000E-01 6.250000E-01 -3.029889E-01
1.250000E-01 6.875000E-01 -4.412102E-01
0.000000E+00 6.875000E-01 -4.780587E-01
3.750000E-02 6.625000E-01 -4.152618E-01
8.125000E-02 6.687500E-01 -4.184667E-01
8.750000E-02 7.125000E-01 -5.154737E-01
4.375000E-02 7.062500E-01 -5.177739E-01
1.875000E-01 6.250000E-01 -2.734877E-01
2.500000E-01 6.250000E-01 -2.321489E-01
2.500000E-01 6.875000E-01 -3.373656E-01
1.625000E-01 6.625000E-01 -3.654204E-01
2.062500E-01 6.687500E-01 -3.441277E-01
2.125000E-01 7.125000E-01 -4.190832E-01
1.687500E-01 7.062500E-01 -4.503694E-01
0.000000E+00 5.000000E-01 3.413652E-03
6.250000E-02 5.000000E-01 2.009640E-04
1.250000E-01 5.000000E-01 -1.922514E-04
1.250000E-01 5.625000E-01 -1.542503E-01
0.000000E+00 5.625000E-01 -1.674422E-01
3.750000E-02 5.375000E-01 -9.696579E-02
8.125000E-02 5.437500E-01 -1.108722E-01
8.750000E-02 5.875000E-01 -2.267399E-01
4.375000E-02 5.812500E-01 -2.176177E-01
1.875000E-01 5.000000E-01 -4.263249E-04
2.500000E-01 5.000000E-01 -6.003963E-04
2.500000E-01 5.625000E-01 -1.179444E-01
1.625000E-01 5.375000E-01 -8.578469E-02
2.062500E-01 5.437500E-01 -9.169276E-02
2.125000E-01 5.875000E-01 -1.842324E-01
1.687500E-01 5.812500E-01 -1.896916E-01
3.125000E-01 6.250000E-01 -1.821617E-01
3.750000E-01 6.250000E-01 -1.254215E-01
3.750000E-01 6.875000E-01 -1.821617E-01
2.875000E-01 6.625000E-01 -2.593042E-01
3.312500E-01 6.687500E-01 -2.171585E-01
3.375000E-01 7.125000E-01 -2.593042E-01
2.937500E-01 7.062500E-01 -3.146949E-01
4.375000E-01 6.250000E-01 -6.341429E-02
5.000000E-01 6.250000E-01 -5.460191E-04
5.000000E-01 6.875000E-01 -2.777298E-04
4.125000E-01 6.625000E-01 -1.136835E-01
4.562500E-01 6.687500E-01 -5.807837E-02
4.625000E-01 7.125000E-01 -6.109680E-02
4.187500E-01 7.062500E-01 -1.325370E-01
3.125000E-01 5.000000E-01 -2.777298E-04
3.750000E-01 5.000000E-01 -5.460191E-04
3.750000E-01 5.625000E-01 -6.341429E-02
2.875000E-01 5.375000E-01 -6.109680E-02
3.312500E-01 5.437500E-01 -5.807837E-02
3.375000E-01 5.875000E-01 -1.136835E-01
2.937500E-01 5.812500E-01 -1.325370E-01
4.375000E-01 5.000000E-01 6.706264E-05
5.000000E-01 5.000000E-01 -4.772760E-04
5.000000E-01 5.625000E-01 6.706264E-05
4.125000E-01 5.375000E-01 -2.665238E-02
4.562500E-01 5.437500E-01 -1.584369E-02
4.625000E-01 5.875000E-01 -2.665238E-02
4.187500E-01 5.812500E-01 -5.568044E-02
5.625000E-01 8.750000E-01 1.548557E-01
6.250000E-01 8.750000E-01 3.026817E-01
6.250000E-01 9.375000E-01 3.223588E-01
6.250000E-01 1.000000E+00 3.306666E-01
5.625000E-01 1.000000E+00 1.670046E-01
5.375000E-01 9.125000E-01 9.476548E-02
5.812500E-01 9.187500E-01 2.124956E-01
5.875000E-01 9.625000E-01 2.347746E-01
5.437500E-01 9.562500E-01 1.139569E-01
6.875000E-01 8.750000E-01 4.422969E-01
7.500000E-01 8.750000E-01 5.623177E-01
7.500000E-01 9.375000E-01 5.987564E-01
7.500000E-01 1.000000E+00 6.109532E-01
6.875000E-01 1.000000E+00 4.781154E-01
6.625000E-01 9.125000E-01 4.030894E-01
7.062500E-01 9.187500E-01 5.057480E-01
7.125000E-01 9.625000E-01 5.334656E-01
6.687500E-01 9.562500E-01 4.293102E-01
5.625000E-01 7.500000E-01 1.184316E-01
6.250000E-01 7.500000E-01 2.315590E-01
6.250000E-01 8.125000E-01 2.729349E-01
5.375000E-01 7.875000E-01 7.723740E-02
5.812500E-01 7.937500E-01 1.740172E-01
5.875000E-01 8.375000E-01 2.059159E-01
5.437500E-01 8.312500E-01 9.878771E-02
6.875000E-01 7.500000E-01 3.385292E-01
7.500000E-01 7.500000E-01 4.298993E-01
7.500000E-01 8.125000E-01 5.068568E-01
6.625000E-01 7.875000E-01 3.284669E-01
7.062500E-01 7.937500E-01 4.149090E-01
7.125000E-01 8.375000E-01 4.680905E-01
6.687500E-01 8.312500E-01 3.734803E-01
8.125000E-01 8.750000E-01 6.639932E-01
8.750000E-01 8.750000E-01 7.360269E-01
8.750000E-01 9.375000E-01 7.829391E-01
8.750000E-01 1.000000E+00 7.969597E-01
8.125000E-01 1.000000E+00 7.180520E-01
7.875000E-01 9.125000E-01 6.524149E-01
8.312500E-01 9.187500E-01 7.227584E-01
8.375000E-01 9.625000E-01 7.512967E-01
7.937500E-01 9.562500E-01 6.814516E-01
9.375000E-01 8.750000E-01 7.829391E-01
1.000000E+00 8.750000E-01 7.969597E-01
1.000000E+00 9.375000E-01 8.457437E-01
1.000000E+00 1.000000E+00 8.602961E-01
9.375000E-01 1.000000E+00 8.457437E-01
9.125000E-01 9.125000E-01 8.002735E-01
9.562500E-01 9.187500E-01 8.273264E-01
9.625000E-01 9.625000E-01 8.521941E-01
9.187500E-01 9.562500E-01 8.273264E-01
8.125000E-01 7.500000E-01 5.068568E-01
8.750000E-01 7.500000E-01 5.623177E-01
8.750000E-01 8.125000E-01 6.639932E-01
7.875000E-01 7.875000E-01 5.306849E-01
8.312500E-01 7.937500E-01 5.932922E-01
8.375000E-01 8.375000E-01 6.602890E-01
7.937500E-01 8.312500E-01 5.932922E-01
9.375000E-01 7.500000E-01 5.987564E-01
1.000000E+00 7.500000E-01 6.109532E-01
1.000000E+00 8.125000E-01 7.180520E-01
9.125000E-01 7.875000E-01 6.524149E-01
9.562500E-01 7.937500E-01 6.814516E-01
9.625000E-01 8.375000E-01 7.512967E-01
9.187500E-01 8.312500E-01 7.227584E-01
5.625000E-01 6.250000E-01 6.375142E-02
6.250000E-01 6.250000E-01 1.246015E-01
6.250000E-01 6.875000E-01 1.821987E-01
5.375000E-01 6.625000E-01 4.786877E-02
5.812500E-01 6.687500E-01 1.090778E-01
5.875000E-01 7.125000E-01 1.457054E-01
5.437500E-01 7.062500E-01 6.867746E-02
6.875000E-01 6.250000E-01 1.821987E-01
7.500000E-01 6.250000E-01 2.315590E-01
7.500000E-01 6.875000E-01 3.385292E-01
6.625000E-01 6.625000E-01 2.033659E-01
7.062500E-01 6.687500E-01 2.611787E-01
7.125000E-01 7.125000E-01 3.321798E-01
6.687500E-01 7.062500E-01 2.611787E-01
5.625000E-01 5.000000E-01 6.706264E-05
6.250000E-01 5.000000E-01 -5.460191E-04
6.250000E-01 5.625000E-01 6.375142E-02
5.375000E-01 5.375000E-01 1.141400E-02
5.812500E-01 5.437500E-01 2.835347E-02
5.875000E-01 5.875000E-01 6.374598E-02
5.437500E-01 5.812500E-01 2.835347E-02
6.875000E-01 5.000000E-01 -2.777298E-04
7.500000E-01 5.000000E-01 -6.003963E-04
7.500000E-01 5.625000E-01 1.184316E-01
6.625000E-01 5.375000E-01 4.786877E-02
7.062500E-01 5.437500E-01 6.867746E-02
7.125000E-01 5.875000E-01 1.457054E-01
6.687500E-01 5.812500E-01 1.090778E-01
8.125000E-01 6.250000E-01 2.729349E-01
8.750000E-01 6.250000E-01 3.026817E-01
8.750000E-01 6.875000E-01 4.422969E-01
7.875000E-01 6.625000E-01 3.284669E-01
8.312500E-01 6.687500E-01 3.734803E-01
8.375000E-01 7.125000E-01 4.680905E-01
7.937500E-01 7.062500E-01 4.149090E-01
9.375000E-01 6.250000E-01 3.223588E-01
1.000000E+00 6.250000E-01 3.306666E-01
1.000000E+00 6.875000E-01 4.781154E-01
9.125000E-01 6.625000E-01 4.030894E-01
9.562500E-01 6.687500E-01 4.293102E-01
9.625000E-01 7.125000E-01 5.334656E-01
9.187500E-01 7.062500E-01 5.057480E-01
8.125000E-01 5.000000E-01 -4.263249E-04
8.750000E-01 5.000000E-01 -1.922514E-04
8.750000E-01 5.625000E-01 1.548557E-01
7.875000E-01 5.375000E-01 7.723740E-02
8.312500E-01 5.437500E-01 9.878771E-02
8.375000E-01 5.875000E-01 2.059159E-01
7.937500E-01 5.812500E-01 1.740172E-01
9.375000E-01 5.000000E-01 2.009640E-04
1.000000E+00 5.000000E-01 3.413652E-03
1.000000E+00 5.625000E-01 1.670046E-01
9.125000E-01 5.375000E-01 9.476548E-02
9.562500E-01 5.437500E-01 1.139569E-01
9.625000E-01 5.875000E-01 2.347746E-01
9.187500E-01 5.812500E-01 2.124956E-01
0.000000E+00 3.750000E-01 3.306666E-01
6.250000E-02 3.750000E-01 3.223588E-01
[...]
CELL_DATA 896
SCALARS sol float 1
LOOKUP_TABLE default
-8.084684E-01
-8.112892E-01
-8.293723E-01
-7.792751E-01
-8.324961E-01
-7.825825E-01
-8.449377E-01
-7.578469E-01
-7.545925E-01
-8.324961E-01
-7.825825E-01
-7.554395E-01
-8.580902E-01
-7.154086E-01
-7.154121E-01
-8.449377E-01
-8.112892E-01
-7.554395E-01
-7.147404E-01
-8.580902E-01
-6.983855E-01
-6.719875E-01
-6.905824E-01
-8.293723E-01
-8.084684E-01
-7.147404E-01
-7.545925E-01
-6.870005E-01
-6.510652E-01
-6.329190E-01
-6.367534E-01
-7.792751E-01
-6.905824E-01
-6.870005E-01
-7.154121E-01
-6.363447E-01
-6.141949E-01
-5.801852E-01
-6.114775E-01
-7.578469E-01
-6.367534E-01
-6.363447E-01
-6.983855E-01
-5.967466E-01
-5.644261E-01
-5.397786E-01
-5.477924E-01
-5.597023E-01
-7.154086E-01
-6.141949E-01
-6.114775E-01
-5.967466E-01
-6.510652E-01
-5.532219E-01
-5.097347E-01
-4.738679E-01
-4.875596E-01
-5.094808E-01
-6.719875E-01
-5.644261E-01
-5.597023E-01
-5.532219E-01
-6.329190E-01
-4.990164E-01
-4.623279E-01
-4.894999E-01
-4.549667E-01
-4.090732E-01
-4.610444E-01
-5.097347E-01
-5.477924E-01
-5.094808E-01
-4.990164E-01
-5.801852E-01
-4.572147E-01
-3.918651E-01
-4.216174E-01
-3.889111E-01
-3.578288E-01
-4.058622E-01
-4.623279E-01
-4.894999E-01
-4.875596E-01
-4.610444E-01
-4.572147E-01
-5.397786E-01
-3.994055E-01
-3.504988E-01
-3.723972E-01
-3.887342E-01
-2.919880E-01
-3.697160E-01
-3.918651E-01
-4.216174E-01
-4.549667E-01
-4.058622E-01
-3.994055E-01
-4.738679E-01
-3.629623E-01
-2.874669E-01
-3.180325E-01
-3.318925E-01
-2.396520E-01
-2.572070E-01
-3.083127E-01
-3.504988E-01
-3.723972E-01
-3.887342E-01
-3.889111E-01
-3.697160E-01
-3.629623E-01
-4.090732E-01
-3.048299E-01
-2.292466E-01
-2.564633E-01
-2.856101E-01
-1.616112E-01
-1.862232E-01
-2.796132E-01
-2.874669E-01
-3.180325E-01
-3.318925E-01
-3.578288E-01
-3.083127E-01
-3.048299E-01
-2.636322E-01
-2.179411E-01
-1.654200E-01
-2.169225E-01
-2.328997E-01
-1.433952E-01
-8.766934E-02
-2.279934E-01
-2.292466E-01
-2.572070E-01
-2.564633E-01
-2.856101E-01
-2.919880E-01
-2.796132E-01
-2.636322E-01
-2.222605E-01
-1.438838E-01
-8.944694E-02
-1.550866E-01
-1.789652E-01
-7.028822E-02
-3.166145E-02
-1.818947E-01
-1.654200E-01
-2.179411E-01
-1.862232E-01
-2.169225E-01
-2.328997E-01
-2.396520E-01
-2.279934E-01
-2.222605E-01
-1.765639E-01
-1.228402E-01
-7.976261E-02
-3.624524E-02
-1.318968E-01
-1.619021E-01
3.828770E-02
-1.428738E-01
-8.944694E-02
-1.438838E-01
-1.433952E-01
-1.550866E-01
-1.789652E-01
-1.616112E-01
-1.818947E-01
-1.765639E-01
-1.424683E-01
-6.107927E-02
-2.973590E-02
3.057086E-02
-7.109632E-02
-1.042049E-01
9.469771E-02
7.024109E-02
-1.004404E-01
-3.624524E-02
-7.976261E-02
-1.228402E-01
-7.028822E-02
-1.318968E-01
-1.619021E-01
-8.766934E-02
-1.428738E-01
-1.424683E-01
-1.019341E-01
-3.038609E-02
3.395277E-02
8.417382E-02
-6.013764E-02
-8.345596E-02
1.741323E-01
1.426917E-01
-7.884499E-02
3.057086E-02
-2.973590E-02
-6.107927E-02
-3.166145E-02
-7.109632E-02
-1.042049E-01
-1.004404E-01
-1.019341E-01
-8.071980E-02
2.467547E-02
8.495523E-02
5.920221E-02
1.557714E-01
-2.200989E-02
-4.130446E-02
1.888974E-01
2.455825E-01
-4.085549E-02
8.417382E-02
7.024109E-02
3.395277E-02
-3.038609E-02
3.828770E-02
-6.013764E-02
-8.345596E-02
-7.884499E-02
-8.071980E-02
-4.830645E-02
6.650221E-02
1.551229E-01
1.188695E-01
2.251700E-01
2.454891E-02
-1.909382E-02
2.576045E-01
2.979228E-01
-3.080036E-02
1.557714E-01
8.495523E-02
1.426917E-01
5.920221E-02
2.467547E-02
9.469771E-02
-2.200989E-02
-4.130446E-02
-4.085549E-02
-4.830645E-02
-3.168261E-02
6.310019E-02
1.249267E-01
1.611880E-01
2.238517E-01
2.825788E-01
3.955594E-02
1.552934E-02
3.634521E-01
-9.867335E-03
2.251700E-01
1.551229E-01
1.888974E-01
1.188695E-01
6.650221E-02
1.741323E-01
2.454891E-02
-1.909382E-02
-3.080036E-02
-3.168261E-02
-1.467371E-02
1.120427E-01
1.763216E-01
2.178504E-01
2.617161E-01
3.446432E-01
7.684508E-02
3.795265E-02
4.157089E-01
3.877009E-01
1.091562E-02
2.825788E-01
2.238517E-01
1.611880E-01
2.576045E-01
1.249267E-01
6.310019E-02
2.455825E-01
3.955594E-02
1.552934E-02
-9.867335E-03
-1.467371E-02
-4.510922E-03
1.085837E-01
1.672187E-01
2.291931E-01
3.205806E-01
3.867294E-01
7.462333E-02
3.185124E-02
4.851419E-01
4.510413E-01
1.382415E-02
3.446432E-01
2.617161E-01
2.178504E-01
2.979228E-01
1.763216E-01
1.120427E-01
7.684508E-02
3.795265E-02
1.091562E-02
-4.510922E-03
3.556370E-03
1.454245E-01
1.867751E-01
2.797652E-01
3.761837E-01
3.277789E-01
4.549542E-01
1.009484E-01
5.189669E-02
4.938688E-01
5.450505E-01
2.397184E-02
3.867294E-01
3.877009E-01
3.205806E-01
2.291931E-01
3.634521E-01
1.672187E-01
1.085837E-01
7.462333E-02
3.185124E-02
1.382415E-02
3.556370E-03
3.556370E-03
1.410749E-01
2.287617E-01
3.036320E-01
4.317768E-01
3.759630E-01
5.079731E-01
8.425940E-02
4.067476E-02
5.492563E-01
5.856283E-01
1.382415E-02
4.549542E-01
3.761837E-01
4.510413E-01
3.277789E-01
2.797652E-01
4.157089E-01
1.867751E-01
1.454245E-01
1.009484E-01
5.189669E-02
2.397184E-02
3.556370E-03
-4.510922E-03
1.721231E-01
2.808048E-01
2.180289E-01
3.646026E-01
4.215218E-01
4.962238E-01
5.616647E-01
8.425940E-02
5.189669E-02
6.367004E-01
1.091562E-02
5.079731E-01
4.317768E-01
4.938688E-01
3.759630E-01
3.036320E-01
4.851419E-01
2.287617E-01
1.410749E-01
8.425940E-02
4.067476E-02
1.382415E-02
-4.510922E-03
-1.467371E-02
1.721231E-01
3.121444E-01
2.444186E-01
3.991099E-01
4.650229E-01
5.158462E-01
6.097947E-01
1.009484E-01
3.185124E-02
6.764334E-01
6.493244E-01
-9.867335E-03
5.616647E-01
4.962238E-01
4.215218E-01
5.492563E-01
3.646026E-01
2.808048E-01
5.450505E-01
2.180289E-01
1.721231E-01
8.425940E-02
5.189669E-02
1.091562E-02
-1.467371E-02
-3.168261E-02
1.410749E-01
2.180289E-01
2.857265E-01
3.703526E-01
4.560630E-01
5.607952E-01
6.329773E-01
7.462333E-02
3.795265E-02
7.232483E-01
6.918604E-01
-3.080036E-02
6.097947E-01
5.158462E-01
4.650229E-01
5.856283E-01
3.991099E-01
3.121444E-01
2.444186E-01
1.721231E-01
1.009484E-01
3.185124E-02
-9.867335E-03
-3.168261E-02
-4.830645E-02
1.454245E-01
2.287617E-01
3.121444E-01
3.703526E-01
4.940718E-01
6.132669E-01
5.487554E-01
6.861482E-01
7.684508E-02
1.552934E-02
7.242495E-01
7.621751E-01
-4.085549E-02
6.329773E-01
6.493244E-01
5.607952E-01
4.560630E-01
6.367004E-01
3.703526E-01
2.857265E-01
2.180289E-01
1.410749E-01
7.462333E-02
3.795265E-02
-3.080036E-02
-4.830645E-02
-8.071980E-02
1.085837E-01
1.867751E-01
2.808048E-01
3.991099E-01
4.940718E-01
6.433272E-01
5.772439E-01
7.148377E-01
3.955594E-02
-1.909382E-02
7.573891E-01
7.837440E-01
-7.884499E-02
6.861482E-01
6.132669E-01
6.918604E-01
5.487554E-01
4.940718E-01
6.764334E-01
3.703526E-01
3.121444E-01
2.287617E-01
1.454245E-01
7.684508E-02
1.552934E-02
-4.085549E-02
-8.071980E-02
-1.019341E-01
1.120427E-01
1.672187E-01
3.036320E-01
4.560630E-01
3.646026E-01
5.487554E-01
6.193427E-01
6.933643E-01
7.552916E-01
2.454891E-02
-4.130446E-02
8.104775E-01
-1.004404E-01
7.148377E-01
6.433272E-01
7.242495E-01
5.772439E-01
4.940718E-01
7.232483E-01
3.991099E-01
2.808048E-01
1.867751E-01
1.085837E-01
3.955594E-02
-1.909382E-02
-7.884499E-02
-1.019341E-01
-1.424683E-01
6.310019E-02
1.763216E-01
2.797652E-01
4.650229E-01
3.759630E-01
5.607952E-01
6.433272E-01
6.933643E-01
7.806141E-01
-2.200989E-02
-8.345596E-02
8.314421E-01
8.101218E-01
-1.428738E-01
7.552916E-01
6.933643E-01
6.193427E-01
7.573891E-01
5.487554E-01
4.560630E-01
7.621751E-01
3.646026E-01
3.036320E-01
1.672187E-01
1.120427E-01
2.454891E-02
-4.130446E-02
-1.004404E-01
-1.424683E-01
-1.765639E-01
6.650221E-02
2.291931E-01
1.249267E-01
3.277789E-01
4.215218E-01
5.158462E-01
6.132669E-01
7.148377E-01
7.806141E-01
-6.013764E-02
-1.042049E-01
8.481330E-01
8.250193E-01
-1.818947E-01
7.806141E-01
6.933643E-01
6.433272E-01
7.837440E-01
5.607952E-01
4.650229E-01
3.759630E-01
2.797652E-01
1.763216E-01
6.310019E-02
-2.200989E-02
-8.345596E-02
-1.428738E-01
-1.765639E-01
-2.222605E-01
2.467547E-02
2.178504E-01
1.188695E-01
3.205806E-01
4.317768E-01
4.962238E-01
6.329773E-01
7.552916E-01
6.861482E-01
8.101218E-01
-7.109632E-02
-1.619021E-01
8.420001E-01
8.602961E-01
-2.279934E-01
7.806141E-01
8.101218E-01
7.148377E-01
6.132669E-01
8.104775E-01
5.158462E-01
4.215218E-01
3.277789E-01
2.291931E-01
1.249267E-01
6.650221E-02
-6.013764E-02
-1.042049E-01
-1.818947E-01
-2.222605E-01
-2.636322E-01
5.920221E-02
-3.038609E-02
1.611880E-01
2.617161E-01
3.761837E-01
5.079731E-01
6.097947E-01
7.573891E-01
6.918604E-01
8.104775E-01
-1.318968E-01
-1.789652E-01
8.481330E-01
8.602961E-01
-2.796132E-01
8.101218E-01
7.552916E-01
8.250193E-01
6.861482E-01
6.329773E-01
8.314421E-01
4.962238E-01
4.317768E-01
3.205806E-01
2.178504E-01
1.188695E-01
2.467547E-02
-7.109632E-02
-1.619021E-01
-2.279934E-01
-2.636322E-01
-3.048299E-01
3.395277E-02
-6.107927E-02
1.551229E-01
2.238517E-01
3.867294E-01
5.616647E-01
4.549542E-01
6.493244E-01
7.242495E-01
7.837440E-01
8.314421E-01
-1.550866E-01
-2.328997E-01
-3.083127E-01
8.104775E-01
7.573891E-01
8.420001E-01
6.918604E-01
6.097947E-01
8.481330E-01
5.079731E-01
3.761837E-01
2.617161E-01
1.611880E-01
5.920221E-02
-3.038609E-02
-1.318968E-01
-1.789652E-01
-2.796132E-01
-3.048299E-01
-3.629623E-01
8.495523E-02
-2.973590E-02
-1.228402E-01
2.251700E-01
3.446432E-01
5.492563E-01
4.510413E-01
6.367004E-01
7.232483E-01
7.621751E-01
-2.169225E-01
-2.856101E-01
-3.697160E-01
8.314421E-01
7.837440E-01
7.242495E-01
8.481330E-01
6.493244E-01
5.616647E-01
8.602961E-01
4.549542E-01
3.867294E-01
2.238517E-01
1.551229E-01
3.395277E-02
-6.107927E-02
-1.550866E-01
-2.328997E-01
-3.083127E-01
-3.629623E-01
-3.994055E-01
8.417382E-02
-7.976261E-02
-1.438838E-01
2.825788E-01
1.557714E-01
3.877009E-01
4.938688E-01
5.856283E-01
6.764334E-01
-2.564633E-01
-3.318925E-01
-4.058622E-01
7.621751E-01
7.232483E-01
8.602961E-01
6.367004E-01
5.492563E-01
4.510413E-01
3.446432E-01
2.251700E-01
8.495523E-02
-2.973590E-02
-1.228402E-01
-2.169225E-01
-2.856101E-01
-3.697160E-01
-3.994055E-01
-4.572147E-01
3.057086E-02
-8.944694E-02
-2.179411E-01
2.576045E-01
1.426917E-01
3.634521E-01
4.851419E-01
5.450505E-01
-3.180325E-01
-3.887342E-01
-4.610444E-01
6.764334E-01
5.856283E-01
4.938688E-01
3.877009E-01
2.825788E-01
1.557714E-01
8.417382E-02
-7.976261E-02
-1.438838E-01
-2.564633E-01
-3.318925E-01
-4.058622E-01
-4.572147E-01
-4.990164E-01
7.024109E-02
-3.624524E-02
-1.654200E-01
-2.292466E-01
1.888974E-01
2.979228E-01
4.157089E-01
-3.723972E-01
-4.216174E-01
-5.094808E-01
5.450505E-01
4.851419E-01
3.634521E-01
2.576045E-01
1.426917E-01
3.057086E-02
-8.944694E-02
-2.179411E-01
-3.180325E-01
-3.887342E-01
-4.610444E-01
-4.990164E-01
-5.532219E-01
3.828770E-02
-7.028822E-02
-1.862232E-01
-2.874669E-01
1.741323E-01
2.455825E-01
-3.918651E-01
-4.894999E-01
-5.597023E-01
4.157089E-01
2.979228E-01
1.888974E-01
7.024109E-02
-3.624524E-02
-1.654200E-01
-2.292466E-01
-3.723972E-01
-4.216174E-01
-5.094808E-01
-5.532219E-01
-5.967466E-01
9.469771E-02
-3.166145E-02
-1.433952E-01
-2.572070E-01
-3.504988E-01
-4.623279E-01
-5.097347E-01
-6.114775E-01
2.455825E-01
1.741323E-01
3.828770E-02
-7.028822E-02
-1.862232E-01
-2.874669E-01
-3.918651E-01
-4.894999E-01
-5.597023E-01
-5.967466E-01
-6.363447E-01
-8.766934E-02
-1.616112E-01
-2.919880E-01
-3.889111E-01
-4.875596E-01
-5.644261E-01
-6.367534E-01
9.469771E-02
-3.166145E-02
-1.433952E-01
-2.572070E-01
-3.504988E-01
-4.623279E-01
-5.097347E-01
-6.114775E-01
-6.363447E-01
-6.870005E-01
-2.396520E-01
-3.578288E-01
-4.549667E-01
-5.477924E-01
-6.141949E-01
-6.905824E-01
-8.766934E-02
-1.616112E-01
-2.919880E-01
-3.889111E-01
-4.875596E-01
-5.644261E-01
-6.367534E-01
-6.870005E-01
-7.147404E-01
-4.090732E-01
-4.738679E-01
-5.801852E-01
-6.510652E-01
-7.154121E-01
-2.396520E-01
-3.578288E-01
-4.549667E-01
-5.477924E-01
-6.141949E-01
-6.905824E-01
-7.147404E-01
-7.554395E-01
-5.397786E-01
-6.329190E-01
-6.983855E-01
-7.545925E-01
-4.090732E-01
-4.738679E-01
-5.801852E-01
-6.510652E-01
-7.154121E-01
-7.554395E-01
-7.825825E-01
-6.719875E-01
-7.154086E-01
-7.792751E-01
-5.397786E-01
-6.329190E-01
-6.983855E-01
-7.545925E-01
-7.825825E-01
-8.112892E-01
-7.578469E-01
-8.084684E-01
-6.719875E-01
-7.154086E-01
-7.792751E-01
-8.112892E-01
-8.324961E-01
-8.293723E-01
-7.578469E-01
-8.084684E-01
-8.324961E-01
-8.449377E-01
-8.293723E-01
-8.449377E-01
-8.580902E-01
-8.580902E-01
