# vtk DataFile Version 2.0
Grille
ASCII
DATASET POLYDATA
POINTS 481 float
0.000000E+00 8.750000E-01 -6.913307E-01
6.250000E-02 8.750000E-01 -6.810018E-01
1.250000E-01 8.750000E-01 -6.404950E-01
1.250000E-01 9.375000E-01 -6.810018E-01
1.250000E-01 1.000000E+00 -6.913307E-01
6.250000E-02 1.000000E+00 -7.358848E-01
0.000000E+00 1.000000E+00 -7.473949E-01
0.000000E+00 9.375000E-01 -7.358848E-01
3.750000E-02 9.125000E-01 -7.184203E-01
8.125000E-02 9.187500E-01 -7.025321E-01
8.750000E-02 9.625000E-01 -7.184203E-01
4.375000E-02 9.562500E-01 -7.370146E-01
1.875000E-01 8.750000E-01 -5.784154E-01
2.500000E-01 8.750000E-01 -4.911260E-01
2.500000E-01 9.375000E-01 -5.227558E-01
2.500000E-01 1.000000E+00 -5.297041E-01
1.875000E-01 1.000000E+00 -6.258723E-01
1.625000E-01 9.125000E-01 -6.332990E-01
2.062500E-01 9.187500E-01 -5.797598E-01
2.125000E-01 9.625000E-01 -5.873526E-01
1.687500E-01 9.562500E-01 -6.444452E-01
0.000000E+00 7.500000E-01 -5.297041E-01
6.250000E-02 7.500000E-01 -5.227558E-01
1.250000E-01 7.500000E-01 -4.911260E-01
1.250000E-01 8.125000E-01 -5.784154E-01
0.000000E+00 8.125000E-01 -6.258723E-01
3.750000E-02 7.875000E-01 -5.873526E-01
8.125000E-02 7.937500E-01 -5.797598E-01
8.750000E-02 8.375000E-01 -6.332990E-01
4.375000E-02 8.312500E-01 -6.444452E-01
1.875000E-01 7.500000E-01 -4.428194E-01
2.500000E-01 7.500000E-01 -3.754692E-01
2.500000E-01 8.125000E-01 -4.428194E-01
1.625000E-01 7.875000E-01 -5.166885E-01
2.062500E-01 7.937500E-01 -4.770860E-01
2.125000E-01 8.375000E-01 -5.166885E-01
1.687500E-01 8.312500E-01 -5.624039E-01
3.125000E-01 8.750000E-01 -3.863408E-01
3.750000E-01 8.750000E-01 -2.652353E-01
3.750000E-01 9.375000E-01 -2.823923E-01
3.750000E-01 1.000000E+00 -2.847996E-01
3.125000E-01 1.000000E+00 -4.189703E-01
2.875000E-01 9.125000E-01 -4.508590E-01
3.312500E-01 9.187500E-01 -3.667389E-01
3.375000E-01 9.625000E-01 -3.644861E-01
2.937500E-01 9.562500E-01 -4.528638E-01
4.375000E-01 8.750000E-01 -1.350213E-01
5.000000E-01 8.750000E-01 -7.123318E-05
5.000000E-01 9.375000E-01 1.932802E-04
5.000000E-01 1.000000E+00 2.826376E-03
4.375000E-01 1.000000E+00 -1.469034E-01
4.125000E-01 9.125000E-01 -1.981100E-01
4.562500E-01 9.187500E-01 -9.739761E-02
4.625000E-01 9.625000E-01 -8.565103E-02
4.187500E-01 9.562500E-01 -1.902824E-01
3.125000E-01 7.500000E-01 -2.947481E-01
3.750000E-01 7.500000E-01 -2.024330E-01
3.750000E-01 8.125000E-01 -2.388639E-01
2.875000E-01 7.875000E-01 -3.665282E-01
3.312500E-01 7.937500E-01 -3.010152E-01
3.375000E-01 8.375000E-01 -3.200043E-01
2.937500E-01 8.312500E-01 -3.941536E-01
4.375000E-01 7.500000E-01 -1.028137E-01
5.000000E-01 7.500000E-01 -3.297952E-04
5.000000E-01 8.125000E-01 -9.017776E-05
4.125000E-01 7.875000E-01 -1.606951E-01
4.562500E-01 7.937500E-01 -8.012825E-02
4.625000E-01 8.375000E-01 -7.528457E-02
4.187500E-01 8.312500E-01 -1.656257E-01
0.000000E+00 6.250000E-01 -2.847996E-01
6.250000E-02 6.250000E-01 -2.823923E-01
1.250000E-01 6.250000E-01 -2.652353E-01
1.250000E-01 6.875000E-01 -3.863408E-01
0.000000E+00 6.875000E-01 -4.189703E-01
3.750000E-02 6.625000E-01 -3.644861E-01
8.125000E-02 6.687500E-01 -3.667389E-01
8.750000E-02 7.125000E-01 -4.508590E-01
4.375000E-02 7.062500E-01 -4.528638E-01
1.875000E-01 6.250000E-01 -2.388639E-01
2.500000E-01 6.250000E-01 -2.024330E-01
2.500000E-01 6.875000E-01 -2.947481E-01
1.625000E-01 6.625000E-01 -3.200043E-01
2.062500E-01 6.687500E-01 -3.010152E-01
2.125000E-01 7.125000E-01 -3.665282E-01
1.687500E-01 7.062500E-01 -3.941536E-01
0.000000E+00 5.000000E-01 2.826376E-03
6.250000E-02 5.000000E-01 1.932802E-04
1.250000E-01 5.000000E-01 -7.123318E-05
1.250000E-01 5.625000E-01 -1.350213E-01
0.000000E+00 5.625000E-01 -1.469034E-01
3.750000E-02 5.375000E-01 -8.565103E-02
8.125000E-02 5.437500E-01 -9.739761E-02
8.750000E-02 5.875000E-01 -1.981100E-01
4.375000E-02 5.812500E-01 -1.902824E-01
1.875000E-01 5.000000E-01 -9.017776E-05
2.500000E-01 5.000000E-01 -3.297952E-04
2.500000E-01 5.625000E-01 -1.028137E-01
1.625000E-01 5.375000E-01 -7.528457E-02
2.062500E-01 5.437500E-01 -8.012825E-02
2.125000E-01 5.875000E-01 -1.606951E-01
1.687500E-01 5.812500E-01 -1.656257E-01
3.125000E-01 6.250000E-01 -1.585815E-01
3.750000E-01 6.250000E-01 -1.090448E-01
3.750000E-01 6.875000E-01 -1.585815E-01
2.875000E-01 6.625000E-01 -2.262564E-01
3.312500E-01 6.687500E-01 -1.893919E-01
3.375000E-01 7.125000E-01 -2.262564E-01
2.937500E-01 7.062500E-01 -2.750709E-01
4.375000E-01 6.250000E-01 -5.516883E-02
5.000000E-01 6.250000E-01 -3.412079E-04
5.000000E-01 6.875000E-01 -2.204827E-05
4.125000E-01 6.625000E-01 -9.892379E-02
4.562500E-01 6.687500E-01 -5.054915E-02
4.625000E-01 7.125000E-01 -5.320261E-02
4.187500E-01 7.062500E-01 -1.154440E-01
3.125000E-01 5.000000E-01 -2.204827E-05
3.750000E-01 5.000000E-01 -3.412079E-04
3.750000E-01 5.625000E-01 -5.516883E-02
2.875000E-01 5.375000E-01 -5.320261E-02
3.312500E-01 5.437500E-01 -5.054915E-02
3.375000E-01 5.875000E-01 -9.892379E-02
2.937500E-01 5.812500E-01 -1.154440E-01
4.375000E-01 5.000000E-01 1.703330E-04
5.000000E-01 5.000000E-01 -3.139218E-04
5.000000E-01 5.625000E-01 1.703330E-04
4.125000E-01 5.375000E-01 -2.316328E-02
4.562500E-01 5.437500E-01 -1.374960E-02
4.625000E-01 5.875000E-01 -2.316328E-02
4.187500E-01 5.812500E-01 -4.850058E-02
5.625000E-01 8.750000E-01 1.356131E-01
6.250000E-01 8.750000E-01 2.653368E-01
6.250000E-01 9.375000E-01 2.828955E-01
6.250000E-01 1.000000E+00 2.901582E-01
5.625000E-01 1.000000E+00 1.464869E-01
5.375000E-01 9.125000E-01 8.350734E-02
5.812500E-01 9.187500E-01 1.859415E-01
5.875000E-01 9.625000E-01 2.054445E-01
5.437500E-01 9.562500E-01 1.001990E-01
6.875000E-01 8.750000E-01 3.873449E-01
7.500000E-01 8.750000E-01 4.918202E-01
7.500000E-01 9.375000E-01 5.236263E-01
7.500000E-01 1.000000E+00 5.341796E-01
6.875000E-01 1.000000E+00 4.190405E-01
6.625000E-01 9.125000E-01 3.536327E-01
7.062500E-01 9.187500E-01 4.426114E-01
7.125000E-01 9.625000E-01 4.667982E-01
6.687500E-01 9.562500E-01 3.765699E-01
5.625000E-01 7.500000E-01 1.033160E-01
6.250000E-01 7.500000E-01 2.021514E-01
6.250000E-01 8.125000E-01 2.389672E-01
5.375000E-01 7.875000E-01 6.773833E-02
5.812500E-01 7.937500E-01 1.519567E-01
5.875000E-01 8.375000E-01 1.799511E-01
5.437500E-01 8.312500E-01 8.667039E-02
6.875000E-01 7.500000E-01 2.956305E-01
7.500000E-01 7.500000E-01 3.758145E-01
7.500000E-01 8.125000E-01 4.435955E-01
6.625000E-01 7.875000E-01 2.873460E-01
7.062500E-01 7.937500E-01 3.630272E-01
7.125000E-01 8.375000E-01 4.097500E-01
6.687500E-01 8.312500E-01 3.272713E-01
8.125000E-01 8.750000E-01 5.796073E-01
8.750000E-01 8.750000E-01 6.415986E-01
8.750000E-01 9.375000E-01 6.822154E-01
8.750000E-01 1.000000E+00 6.944124E-01
8.125000E-01 1.000000E+00 6.264358E-01
7.875000E-01 9.125000E-01 5.698795E-01
8.312500E-01 9.187500E-01 6.302076E-01
8.375000E-01 9.625000E-01 6.548959E-01
7.937500E-01 9.562500E-01 5.949689E-01
9.375000E-01 8.750000E-01 6.822154E-01
1.000000E+00 8.750000E-01 6.944124E-01
1.000000E+00 9.375000E-01 7.368822E-01
1.000000E+00 1.000000E+00 7.496210E-01
9.375000E-01 1.000000E+00 7.368822E-01
9.125000E-01 9.125000E-01 6.972833E-01
9.562500E-01 9.187500E-01 7.207856E-01
9.625000E-01 9.625000E-01 7.425159E-01
9.187500E-01 9.562500E-01 7.207856E-01
8.125000E-01 7.500000E-01 4.435955E-01
8.750000E-01 7.500000E-01 4.918202E-01
8.750000E-01 8.125000E-01 5.796073E-01
7.875000E-01 7.875000E-01 4.644045E-01
8.312500E-01 7.937500E-01 5.188560E-01
8.375000E-01 8.375000E-01 5.765486E-01
7.937500E-01 8.312500E-01 5.188560E-01
9.375000E-01 7.500000E-01 5.236263E-01
1.000000E+00 7.500000E-01 5.341796E-01
1.000000E+00 8.125000E-01 6.264358E-01
9.125000E-01 7.875000E-01 5.698795E-01
9.562500E-01 7.937500E-01 5.949689E-01
9.625000E-01 8.375000E-01 6.548959E-01
9.187500E-01 8.312500E-01 6.302076E-01
5.625000E-01 6.250000E-01 5.559971E-02
6.250000E-01 6.250000E-01 1.085237E-01
6.250000E-01 6.875000E-01 1.588889E-01
5.375000E-01 6.625000E-01 4.186675E-02
5.812500E-01 6.687500E-01 9.511623E-02
5.875000E-01 7.125000E-01 1.270413E-01
5.437500E-01 7.062500E-01 6.007502E-02
6.875000E-01 6.250000E-01 1.588889E-01
7.500000E-01 6.250000E-01 2.021514E-01
7.500000E-01 6.875000E-01 2.956305E-01
6.625000E-01 6.625000E-01 1.773558E-01
7.062500E-01 6.687500E-01 2.280690E-01
7.125000E-01 7.125000E-01 2.901020E-01
6.687500E-01 7.062500E-01 2.280690E-01
5.625000E-01 5.000000E-01 1.703330E-04
6.250000E-01 5.000000E-01 -3.412079E-04
6.250000E-01 5.625000E-01 5.559971E-02
5.375000E-01 5.375000E-01 1.007492E-02
5.812500E-01 5.437500E-01 2.487199E-02
5.875000E-01 5.875000E-01 5.564762E-02
5.437500E-01 5.812500E-01 2.487199E-02
6.875000E-01 5.000000E-01 -2.204827E-05
7.500000E-01 5.000000E-01 -3.297952E-04
7.500000E-01 5.625000E-01 1.033160E-01
6.625000E-01 5.375000E-01 4.186675E-02
7.062500E-01 5.437500E-01 6.007502E-02
7.125000E-01 5.875000E-01 1.270413E-01
6.687500E-01 5.812500E-01 9.511623E-02
8.125000E-01 6.250000E-01 2.389672E-01
8.750000E-01 6.250000E-01 2.653368E-01
8.750000E-01 6.875000E-01 3.873449E-01
7.875000E-01 6.625000E-01 2.873460E-01
8.312500E-01 6.687500E-01 3.272713E-01
8.375000E-01 7.125000E-01 4.097500E-01
7.937500E-01 7.062500E-01 3.630272E-01
9.375000E-01 6.250000E-01 2.828955E-01
1.000000E+00 6.250000E-01 2.901582E-01
1.000000E+00 6.875000E-01 4.190405E-01
9.125000E-01 6.625000E-01 3.536327E-01
9.562500E-01 6.687500E-01 3.765699E-01
9.625000E-01 7.125000E-01 4.667982E-01
9.187500E-01 7.062500E-01 4.426114E-01
8.125000E-01 5.000000E-01 -9.017776E-05
8.750000E-01 5.000000E-01 -7.123318E-05
8.750000E-01 5.625000E-01 1.356131E-01
7.875000E-01 5.375000E-01 6.773833E-02
8.312500E-01 5.437500E-01 8.667039E-02
8.375000E-01 5.875000E-01 1.799511E-01
7.937500E-01 5.812500E-01 1.519567E-01
9.375000E-01 5.000000E-01 1.932802E-04
1.000000E+00 5.000000E-01 2.826376E-03
1.000000E+00 5.625000E-01 1.464869E-01
9.125000E-01 5.375000E-01 8.350734E-02
9.562500E-01 5.437500E-01 1.001990E-01
9.625000E-01 5.875000E-01 2.054445E-01
9.187500E-01 5.812500E-01 1.859415E-01
0.000000E+00 3.750000E-01 2.901582E-01
6.250000E-02 3.750000E-01 2.828955E-01
[...]
CELL_DATA 896
SCALARS sol float 1
LOOKUP_TABLE default
-7.039534E-01
-7.064664E-01
-7.222604E-01
-6.788468E-01
-7.249710E-01
-6.816665E-01
-7.358551E-01
-6.602621E-01
-6.573663E-01
-7.249710E-01
-6.816665E-01
-6.579705E-01
-7.473949E-01
-6.239224E-01
-6.238050E-01
-7.358551E-01
-7.064664E-01
-6.579705E-01
-6.231651E-01
-7.473949E-01
-6.090187E-01
-5.870451E-01
-6.023436E-01
-7.222604E-01
-7.039534E-01
-6.231651E-01
-6.573663E-01
-5.991781E-01
-5.684972E-01
-5.528506E-01
-5.558961E-01
-6.788468E-01
-6.023436E-01
-5.991781E-01
-6.238050E-01
-5.560751E-01
-5.367766E-01
-5.069938E-01
-5.341451E-01
-6.602621E-01
-5.558961E-01
-5.560751E-01
-6.090187E-01
-5.221888E-01
-4.931963E-01
-4.719270E-01
-4.785291E-01
-4.889432E-01
-6.239224E-01
-5.367766E-01
-5.341451E-01
-5.221888E-01
-5.684972E-01
-4.835718E-01
-4.463386E-01
-4.152220E-01
-4.265571E-01
-4.459826E-01
-5.870451E-01
-4.931963E-01
-4.889432E-01
-4.835718E-01
-5.528506E-01
-4.363689E-01
-4.048181E-01
-4.277293E-01
-3.984441E-01
-3.599336E-01
-4.033013E-01
-4.463386E-01
-4.785291E-01
-4.459826E-01
-4.363689E-01
-5.069938E-01
-3.993485E-01
-3.433828E-01
-3.692120E-01
-3.414791E-01
-3.145096E-01
-3.555493E-01
-4.048181E-01
-4.277293E-01
-4.265571E-01
-4.033013E-01
-3.993485E-01
-4.719270E-01
-3.490424E-01
-3.077653E-01
-3.268422E-01
-3.405721E-01
-2.553478E-01
-3.235927E-01
-3.433828E-01
-3.692120E-01
-3.984441E-01
-3.555493E-01
-3.490424E-01
-4.152220E-01
-3.171170E-01
-2.511356E-01
-2.781160E-01
-2.900617E-01
-2.094073E-01
-2.244161E-01
-2.690870E-01
-3.077653E-01
-3.268422E-01
-3.405721E-01
-3.414791E-01
-3.235927E-01
-3.171170E-01
-3.599336E-01
-2.664135E-01
-2.005326E-01
-2.241928E-01
-2.496419E-01
-1.417162E-01
-1.626431E-01
-2.438441E-01
-2.511356E-01
-2.781160E-01
-2.900617E-01
-3.145096E-01
-2.690870E-01
-2.664135E-01
-2.306605E-01
-1.899148E-01
-1.446792E-01
-1.889609E-01
-2.029221E-01
-1.257913E-01
-7.799456E-02
-1.983855E-01
-2.005326E-01
-2.244161E-01
-2.241928E-01
-2.496419E-01
-2.553478E-01
-2.438441E-01
-2.306605E-01
-1.936171E-01
-1.259189E-01
-7.866275E-02
-1.354193E-01
-1.561951E-01
-6.248964E-02
-2.874721E-02
-1.587095E-01
-1.446792E-01
-1.899148E-01
-1.626431E-01
-1.889609E-01
-2.029221E-01
-2.094073E-01
-1.983855E-01
-1.936171E-01
-1.536066E-01
-1.075555E-01
-7.068690E-02
-3.253782E-02
-1.152829E-01
-1.406792E-01
3.428440E-02
-1.243403E-01
-7.866275E-02
-1.259189E-01
-1.257913E-01
-1.354193E-01
-1.561951E-01
-1.417162E-01
-1.587095E-01
-1.536066E-01
-1.237251E-01
-5.342959E-02
-2.607369E-02
2.782469E-02
-6.189125E-02
-9.071219E-02
8.376288E-02
6.257496E-02
-8.762285E-02
-3.253782E-02
-7.068690E-02
-1.075555E-01
-6.248964E-02
-1.152829E-01
-1.406792E-01
-7.799456E-02
-1.243403E-01
-1.237251E-01
-8.860528E-02
-2.664884E-02
3.015732E-02
7.419396E-02
-5.268695E-02
-7.282335E-02
1.523439E-01
1.250366E-01
-6.875364E-02
2.782469E-02
-2.607369E-02
-5.342959E-02
-2.874721E-02
-6.189125E-02
-9.071219E-02
-8.762285E-02
-8.860528E-02
-7.024215E-02
2.229526E-02
7.521532E-02
5.247910E-02
1.362861E-01
-1.888830E-02
-3.577286E-02
1.650326E-01
2.149802E-01
-3.540756E-02
7.419396E-02
6.257496E-02
3.015732E-02
-2.664884E-02
3.428440E-02
-5.268695E-02
-7.282335E-02
-6.875364E-02
-7.024215E-02
-4.209679E-02
5.809135E-02
1.353821E-01
1.039114E-01
1.970938E-01
2.151971E-02
-1.650649E-02
2.253537E-01
2.609592E-01
-2.677571E-02
1.362861E-01
7.521532E-02
1.250366E-01
5.247910E-02
2.229526E-02
8.376288E-02
-1.888830E-02
-3.577286E-02
-3.540756E-02
-4.209679E-02
-2.766445E-02
5.557066E-02
1.088766E-01
1.406394E-01
1.953009E-01
2.473386E-01
3.479138E-02
1.379165E-02
3.194199E-01
-8.412790E-03
1.970938E-01
1.353821E-01
1.650326E-01
1.039114E-01
5.809135E-02
1.523439E-01
2.151971E-02
-1.650649E-02
-2.677571E-02
-2.766445E-02
-1.268008E-02
9.755585E-02
1.539247E-01
1.904556E-01
2.293355E-01
3.032130E-01
6.714597E-02
3.306404E-02
3.652734E-01
3.409034E-01
9.574574E-03
2.473386E-01
1.953009E-01
1.406394E-01
2.253537E-01
1.088766E-01
5.557066E-02
2.149802E-01
3.479138E-02
1.379165E-02
-8.412790E-03
-1.268008E-02
-3.829357E-03
9.480682E-02
1.453453E-01
2.001763E-01
2.809647E-01
3.391431E-01
6.504751E-02
2.794262E-02
4.247456E-01
3.950555E-01
1.216992E-02
3.032130E-01
2.293355E-01
1.904556E-01
2.609592E-01
1.539247E-01
9.755585E-02
6.714597E-02
3.306404E-02
9.574574E-03
-3.829357E-03
3.201514E-03
1.269126E-01
1.631954E-01
2.449850E-01
3.303046E-01
2.872903E-01
3.982240E-01
8.792201E-02
4.537311E-02
4.321295E-01
4.770615E-01
2.108300E-02
3.391431E-01
3.409034E-01
2.809647E-01
2.001763E-01
3.194199E-01
1.453453E-01
9.480682E-02
6.504751E-02
2.794262E-02
1.216992E-02
3.201514E-03
3.201514E-03
1.228554E-01
1.994466E-01
2.649676E-01
3.778102E-01
3.292162E-01
4.447906E-01
7.338774E-02
3.574302E-02
4.805050E-01
5.122355E-01
1.216992E-02
3.982240E-01
3.303046E-01
3.950555E-01
2.872903E-01
2.449850E-01
3.652734E-01
1.631954E-01
1.269126E-01
8.792201E-02
4.537311E-02
2.108300E-02
3.201514E-03
-3.829357E-03
1.499295E-01
2.451700E-01
1.901582E-01
3.185443E-01
3.692137E-01
4.337075E-01
4.912333E-01
7.338774E-02
4.537311E-02
5.564818E-01
9.574574E-03
4.447906E-01
3.778102E-01
4.321295E-01
3.292162E-01
2.649676E-01
4.247456E-01
1.994466E-01
1.228554E-01
7.338774E-02
3.574302E-02
1.216992E-02
-3.829357E-03
-1.268008E-02
1.499295E-01
2.726411E-01
2.135153E-01
3.487929E-01
4.073896E-01
4.518674E-01
5.335367E-01
8.792201E-02
2.794262E-02
5.909396E-01
5.676701E-01
-8.412790E-03
4.912333E-01
4.337075E-01
3.692137E-01
4.805050E-01
3.185443E-01
2.451700E-01
4.770615E-01
1.901582E-01
1.499295E-01
7.338774E-02
4.537311E-02
9.574574E-03
-1.268008E-02
-2.766445E-02
1.228554E-01
1.901582E-01
2.500557E-01
3.231645E-01
3.988863E-01
4.904954E-01
5.528888E-01
6.504751E-02
3.306404E-02
6.306602E-01
6.037248E-01
-2.677571E-02
5.335367E-01
4.518674E-01
4.073896E-01
5.122355E-01
3.487929E-01
2.726411E-01
2.135153E-01
1.499295E-01
8.792201E-02
2.794262E-02
-8.412790E-03
-2.766445E-02
-4.209679E-02
1.269126E-01
1.994466E-01
2.726411E-01
3.231645E-01
4.324143E-01
5.360418E-01
4.801090E-01
5.984867E-01
6.714597E-02
1.379165E-02
6.315201E-01
6.642775E-01
-3.540756E-02
5.528888E-01
5.676701E-01
4.904954E-01
3.988863E-01
5.564818E-01
3.231645E-01
2.500557E-01
1.901582E-01
1.228554E-01
6.504751E-02
3.306404E-02
-2.677571E-02
-4.209679E-02
-7.024215E-02
9.480682E-02
1.631954E-01
2.451700E-01
3.487929E-01
4.324143E-01
5.621425E-01
5.052324E-01
6.234044E-01
3.479138E-02
-1.650649E-02
6.601684E-01
6.829488E-01
-6.875364E-02
5.984867E-01
5.360418E-01
6.037248E-01
4.801090E-01
4.324143E-01
5.909396E-01
3.231645E-01
2.726411E-01
1.994466E-01
1.269126E-01
6.714597E-02
1.379165E-02
-3.540756E-02
-7.024215E-02
-8.860528E-02
9.755585E-02
1.453453E-01
2.649676E-01
3.988863E-01
3.185443E-01
4.801090E-01
5.418108E-01
6.046222E-01
6.581339E-01
2.151971E-02
-3.577286E-02
7.060419E-01
-8.762285E-02
6.234044E-01
5.621425E-01
6.315201E-01
5.052324E-01
4.324143E-01
6.306602E-01
3.487929E-01
2.451700E-01
1.631954E-01
9.480682E-02
3.479138E-02
-1.650649E-02
-6.875364E-02
-8.860528E-02
-1.237251E-01
5.557066E-02
1.539247E-01
2.449850E-01
4.073896E-01
3.292162E-01
4.904954E-01
5.621425E-01
6.046222E-01
6.802339E-01
-1.888830E-02
-7.282335E-02
7.243811E-01
7.057969E-01
-1.243403E-01
6.581339E-01
6.046222E-01
5.418108E-01
6.601684E-01
4.801090E-01
3.988863E-01
6.642775E-01
3.185443E-01
2.649676E-01
1.453453E-01
9.755585E-02
2.151971E-02
-3.577286E-02
-8.762285E-02
-1.237251E-01
-1.536066E-01
5.809135E-02
2.001763E-01
1.088766E-01
2.872903E-01
3.692137E-01
4.518674E-01
5.360418E-01
6.234044E-01
6.802339E-01
-5.268695E-02
-9.071219E-02
7.389522E-01
7.187916E-01
-1.587095E-01
6.802339E-01
6.046222E-01
5.621425E-01
6.829488E-01
4.904954E-01
4.073896E-01
3.292162E-01
2.449850E-01
1.539247E-01
5.557066E-02
-1.888830E-02
-7.282335E-02
-1.243403E-01
-1.536066E-01
-1.936171E-01
2.229526E-02
1.904556E-01
1.039114E-01
2.809647E-01
3.778102E-01
4.337075E-01
5.528888E-01
6.581339E-01
5.984867E-01
7.057969E-01
-6.189125E-02
-1.406792E-01
7.335804E-01
7.496210E-01
-1.983855E-01
6.802339E-01
7.057969E-01
6.234044E-01
5.360418E-01
7.060419E-01
4.518674E-01
3.692137E-01
2.872903E-01
2.001763E-01
1.088766E-01
5.809135E-02
-5.268695E-02
-9.071219E-02
-1.587095E-01
-1.936171E-01
-2.306605E-01
5.247910E-02
-2.664884E-02
1.406394E-01
2.293355E-01
3.303046E-01
4.447906E-01
5.335367E-01
6.601684E-01
6.037248E-01
7.060419E-01
-1.152829E-01
-1.561951E-01
7.389522E-01
7.496210E-01
-2.438441E-01
7.057969E-01
6.581339E-01
7.187916E-01
5.984867E-01
5.528888E-01
7.243811E-01
4.337075E-01
3.778102E-01
2.809647E-01
1.904556E-01
1.039114E-01
2.229526E-02
-6.189125E-02
-1.406792E-01
-1.983855E-01
-2.306605E-01
-2.664135E-01
3.015732E-02
-5.342959E-02
1.353821E-01
1.953009E-01
3.391431E-01
4.912333E-01
3.982240E-01
5.676701E-01
6.315201E-01
6.829488E-01
7.243811E-01
-1.354193E-01
-2.029221E-01
-2.690870E-01
7.060419E-01
6.601684E-01
7.335804E-01
6.037248E-01
5.335367E-01
7.389522E-01
4.447906E-01
3.303046E-01
2.293355E-01
1.406394E-01
5.247910E-02
-2.664884E-02
-1.152829E-01
-1.561951E-01
-2.438441E-01
-2.664135E-01
-3.171170E-01
7.521532E-02
-2.607369E-02
-1.075555E-01
1.970938E-01
3.032130E-01
4.805050E-01
3.950555E-01
5.564818E-01
6.306602E-01
6.642775E-01
-1.889609E-01
-2.496419E-01
-3.235927E-01
7.243811E-01
6.829488E-01
6.315201E-01
7.389522E-01
5.676701E-01
4.912333E-01
7.496210E-01
3.982240E-01
3.391431E-01
1.953009E-01
1.353821E-01
3.015732E-02
-5.342959E-02
-1.354193E-01
-2.029221E-01
-2.690870E-01
-3.171170E-01
-3.490424E-01
7.419396E-02
-7.068690E-02
-1.259189E-01
2.473386E-01
1.362861E-01
3.409034E-01
4.321295E-01
5.122355E-01
5.909396E-01
-2.241928E-01
-2.900617E-01
-3.555493E-01
6.642775E-01
6.306602E-01
7.496210E-01
5.564818E-01
4.805050E-01
3.950555E-01
3.032130E-01
1.970938E-01
7.521532E-02
-2.607369E-02
-1.075555E-01
-1.889609E-01
-2.496419E-01
-3.235927E-01
-3.490424E-01
-3.993485E-01
2.782469E-02
-7.866275E-02
-1.899148E-01
2.253537E-01
1.250366E-01
3.194199E-01
4.247456E-01
4.770615E-01
-2.781160E-01
-3.405721E-01
-4.033013E-01
5.909396E-01
5.122355E-01
4.321295E-01
3.409034E-01
2.473386E-01
1.362861E-01
7.419396E-02
-7.068690E-02
-1.259189E-01
-2.241928E-01
-2.900617E-01
-3.555493E-01
-3.993485E-01
-4.363689E-01
6.257496E-02
-3.253782E-02
-1.446792E-01
-2.005326E-01
1.650326E-01
2.609592E-01
3.652734E-01
-3.268422E-01
-3.692120E-01
-4.459826E-01
4.770615E-01
4.247456E-01
3.194199E-01
2.253537E-01
1.250366E-01
2.782469E-02
-7.866275E-02
-1.899148E-01
-2.781160E-01
-3.405721E-01
-4.033013E-01
-4.363689E-01
-4.835718E-01
3.428440E-02
-6.248964E-02
-1.626431E-01
-2.511356E-01
1.523439E-01
2.149802E-01
-3.433828E-01
-4.277293E-01
-4.889432E-01
3.652734E-01
2.609592E-01
1.650326E-01
6.257496E-02
-3.253782E-02
-1.446792E-01
-2.005326E-01
-3.268422E-01
-3.692120E-01
-4.459826E-01
-4.835718E-01
-5.221888E-01
8.376288E-02
-2.874721E-02
-1.257913E-01
-2.244161E-01
-3.077653E-01
-4.048181E-01
-4.463386E-01
-5.341451E-01
2.149802E-01
1.523439E-01
3.428440E-02
-6.248964E-02
-1.626431E-01
-2.511356E-01
-3.433828E-01
-4.277293E-01
-4.889432E-01
-5.221888E-01
-5.560751E-01
-7.799456E-02
-1.417162E-01
-2.553478E-01
-3.414791E-01
-4.265571E-01
-4.931963E-01
-5.558961E-01
8.376288E-02
-2.874721E-02
-1.257913E-01
-2.244161E-01
-3.077653E-01
-4.048181E-01
-4.463386E-01
-5.341451E-01
-5.560751E-01
-5.991781E-01
-2.094073E-01
-3.145096E-01
-3.984441E-01
-4.785291E-01
-5.367766E-01
-6.023436E-01
-7.799456E-02
-1.417162E-01
-2.553478E-01
-3.414791E-01
-4.265571E-01
-4.931963E-01
-5.558961E-01
-5.991781E-01
-6.231651E-01
-3.599336E-01
-4.152220E-01
-5.069938E-01
-5.684972E-01
-6.238050E-01
-2.094073E-01
-3.145096E-01
-3.984441E-01
-4.785291E-01
-5.367766E-01
-6.023436E-01
-6.231651E-01
-6.579705E-01
-4.719270E-01
-5.528506E-01
-6.090187E-01
-6.573663E-01
-3.599336E-01
-4.152220E-01
-5.069938E-01
-5.684972E-01
-6.238050E-01
-6.579705E-01
-6.816665E-01
-5.870451E-01
-6.239224E-01
-6.788468E-01
-4.719270E-01
-5.528506E-01
-6.090187E-01
-6.573663E-01
-6.816665E-01
-7.064664E-01
-6.602621E-01
-7.039534E-01
-5.870451E-01
-6.239224E-01
-6.788468E-01
-7.064664E-01
-7.249710E-01
-7.222604E-01
-6.602621E-01
-7.039534E-01
-7.249710E-01
-7.358551E-01
-7.222604E-01
-7.358551E-01
-7.473949E-01
-7.473949E-01
