# vtk DataFile Version 2.0
Grille
ASCII
DATASET POLYDATA
POINTS 28929 float
0.000000E+00 9.843750E-01 -6.019367E-01
7.812500E-03 9.843750E-01 -6.017930E-01
1.562500E-02 9.843750E-01 -6.012303E-01
1.562500E-02 9.921875E-01 -6.017930E-01
1.562500E-02 1.000000E+00 -6.019367E-01
7.812500E-03 1.000000E+00 -6.025137E-01
0.000000E+00 1.000000E+00 -6.026618E-01
0.000000E+00 9.921875E-01 -6.025137E-01
4.687500E-03 9.890625E-01 -6.022868E-01
1.015625E-02 9.898438E-01 -6.020757E-01
1.093750E-02 9.953125E-01 -6.022868E-01
5.468750E-03 9.945312E-01 -6.025277E-01
2.343750E-02 9.843750E-01 -6.003564E-01
3.125000E-02 9.843750E-01 -5.990764E-01
3.125000E-02 9.921875E-01 -5.996372E-01
3.125000E-02 1.000000E+00 -5.997684E-01
2.343750E-02 1.000000E+00 -6.010785E-01
2.031250E-02 9.890625E-01 -6.011450E-01
2.578125E-02 9.898438E-01 -6.004125E-01
2.656250E-02 9.953125E-01 -6.005529E-01
2.109375E-02 9.945312E-01 -6.013155E-01
0.000000E+00 9.687500E-01 -5.997684E-01
7.812500E-03 9.687500E-01 -5.996372E-01
1.562500E-02 9.687500E-01 -5.990764E-01
1.562500E-02 9.765625E-01 -6.003564E-01
0.000000E+00 9.765625E-01 -6.010785E-01
4.687500E-03 9.734375E-01 -6.005529E-01
1.015625E-02 9.742188E-01 -6.004125E-01
1.093750E-02 9.796875E-01 -6.011450E-01
5.468750E-03 9.789062E-01 -6.013155E-01
2.343750E-02 9.687500E-01 -5.982055E-01
3.125000E-02 9.687500E-01 -5.969299E-01
3.125000E-02 9.765625E-01 -5.982055E-01
2.031250E-02 9.734375E-01 -5.994143E-01
2.578125E-02 9.742188E-01 -5.987537E-01
2.656250E-02 9.796875E-01 -5.994143E-01
2.109375E-02 9.789062E-01 -6.001056E-01
3.906250E-02 9.843750E-01 -5.974862E-01
4.687500E-02 9.843750E-01 -5.954915E-01
4.687500E-02 9.921875E-01 -5.960491E-01
4.687500E-02 1.000000E+00 -5.961675E-01
3.906250E-02 1.000000E+00 -5.982080E-01
3.593750E-02 9.890625E-01 -5.985678E-01
4.140625E-02 9.898438E-01 -5.973155E-01
4.218750E-02 9.953125E-01 -5.973849E-01
3.671875E-02 9.945312E-01 -5.986674E-01
5.468750E-02 9.843750E-01 -5.931883E-01
6.250000E-02 9.843750E-01 -5.904833E-01
6.250000E-02 9.921875E-01 -5.910363E-01
6.250000E-02 1.000000E+00 -5.911416E-01
5.468750E-02 1.000000E+00 -5.939083E-01
5.156250E-02 9.890625E-01 -5.945607E-01
5.703125E-02 9.898438E-01 -5.927911E-01
5.781250E-02 9.953125E-01 -5.927894E-01
5.234375E-02 9.945312E-01 -5.945892E-01
3.906250E-02 9.687500E-01 -5.953452E-01
4.687500E-02 9.687500E-01 -5.933575E-01
4.687500E-02 9.765625E-01 -5.946257E-01
3.593750E-02 9.734375E-01 -5.968443E-01
4.140625E-02 9.742188E-01 -5.956649E-01
4.218750E-02 9.796875E-01 -5.962521E-01
3.671875E-02 9.789062E-01 -5.974627E-01
5.468750E-02 9.687500E-01 -5.910621E-01
6.250000E-02 9.687500E-01 -5.883665E-01
6.250000E-02 9.765625E-01 -5.896245E-01
5.156250E-02 9.734375E-01 -5.928483E-01
5.703125E-02 9.742188E-01 -5.911525E-01
5.781250E-02 9.796875E-01 -5.916649E-01
5.234375E-02 9.789062E-01 -5.933924E-01
0.000000E+00 9.531250E-01 -5.961675E-01
7.812500E-03 9.531250E-01 -5.960491E-01
1.562500E-02 9.531250E-01 -5.954915E-01
1.562500E-02 9.609375E-01 -5.974862E-01
0.000000E+00 9.609375E-01 -5.982080E-01
4.687500E-03 9.578125E-01 -5.973849E-01
1.015625E-02 9.585938E-01 -5.973155E-01
1.093750E-02 9.640625E-01 -5.985678E-01
5.468750E-03 9.632812E-01 -5.986674E-01
2.343750E-02 9.531250E-01 -5.946257E-01
3.125000E-02 9.531250E-01 -5.933575E-01
3.125000E-02 9.609375E-01 -5.953452E-01
2.031250E-02 9.578125E-01 -5.962521E-01
2.578125E-02 9.585938E-01 -5.956649E-01
2.656250E-02 9.640625E-01 -5.968443E-01
2.109375E-02 9.632812E-01 -5.974627E-01
0.000000E+00 9.375000E-01 -5.911416E-01
7.812500E-03 9.375000E-01 -5.910363E-01
1.562500E-02 9.375000E-01 -5.904833E-01
1.562500E-02 9.453125E-01 -5.931883E-01
0.000000E+00 9.453125E-01 -5.939083E-01
4.687500E-03 9.421875E-01 -5.927894E-01
1.015625E-02 9.429688E-01 -5.927911E-01
1.093750E-02 9.484375E-01 -5.945607E-01
5.468750E-03 9.476562E-01 -5.945892E-01
2.343750E-02 9.375000E-01 -5.896245E-01
3.125000E-02 9.375000E-01 -5.883665E-01
3.125000E-02 9.453125E-01 -5.910621E-01
2.031250E-02 9.421875E-01 -5.916649E-01
2.578125E-02 9.429688E-01 -5.911525E-01
2.656250E-02 9.484375E-01 -5.928483E-01
2.109375E-02 9.476562E-01 -5.933924E-01
3.906250E-02 9.531250E-01 -5.917818E-01
4.687500E-02 9.531250E-01 -5.898056E-01
4.687500E-02 9.609375E-01 -5.917818E-01
3.593750E-02 9.578125E-01 -5.936951E-01
4.140625E-02 9.585938E-01 -5.925914E-01
4.218750E-02 9.640625E-01 -5.936951E-01
3.671875E-02 9.632812E-01 -5.948310E-01
5.468750E-02 9.531250E-01 -5.875235E-01
6.250000E-02 9.531250E-01 -5.848435E-01
6.250000E-02 9.609375E-01 -5.868036E-01
5.156250E-02 9.578125E-01 -5.897194E-01
5.703125E-02 9.585938E-01 -5.881015E-01
5.781250E-02 9.640625E-01 -5.891269E-01
5.234375E-02 9.632812E-01 -5.907780E-01
3.906250E-02 9.375000E-01 -5.868036E-01
4.687500E-02 9.375000E-01 -5.848435E-01
4.687500E-02 9.453125E-01 -5.875235E-01
3.593750E-02 9.421875E-01 -5.891269E-01
4.140625E-02 9.429688E-01 -5.881015E-01
4.218750E-02 9.484375E-01 -5.897194E-01
3.671875E-02 9.476562E-01 -5.907780E-01
5.468750E-02 9.375000E-01 -5.825798E-01
6.250000E-02 9.375000E-01 -5.799216E-01
6.250000E-02 9.453125E-01 -5.825798E-01
5.156250E-02 9.421875E-01 -5.851807E-01
5.703125E-02 9.429688E-01 -5.836443E-01
5.781250E-02 9.484375E-01 -5.851807E-01
5.234375E-02 9.476562E-01 -5.867515E-01
7.031250E-02 9.843750E-01 -5.874719E-01
7.812500E-02 9.843750E-01 -5.840622E-01
7.812500E-02 9.921875E-01 -5.846095E-01
7.812500E-02 1.000000E+00 -5.847014E-01
7.031250E-02 1.000000E+00 -5.881883E-01
6.718750E-02 9.890625E-01 -5.891321E-01
7.265625E-02 9.898438E-01 -5.868489E-01
7.343750E-02 9.953125E-01 -5.867761E-01
6.796875E-02 9.945312E-01 -5.890894E-01
8.593750E-02 9.843750E-01 -5.803491E-01
9.375000E-02 9.843750E-01 -5.762421E-01
9.375000E-02 9.921875E-01 -5.767823E-01
9.375000E-02 1.000000E+00 -5.768606E-01
8.593750E-02 1.000000E+00 -5.810603E-01
8.281250E-02 9.890625E-01 -5.822935E-01
8.828125E-02 9.898438E-01 -5.795017E-01
8.906250E-02 9.953125E-01 -5.793577E-01
8.359375E-02 9.945312E-01 -5.821796E-01
7.031250E-02 9.687500E-01 -5.853655E-01
7.812500E-02 9.687500E-01 -5.819677E-01
7.812500E-02 9.765625E-01 -5.832125E-01
6.718750E-02 9.734375E-01 -5.874348E-01
7.265625E-02 9.742188E-01 -5.852262E-01
7.343750E-02 9.796875E-01 -5.856626E-01
6.796875E-02 9.789062E-01 -5.879032E-01
8.593750E-02 9.687500E-01 -5.782673E-01
9.375000E-02 9.687500E-01 -5.741747E-01
9.375000E-02 9.765625E-01 -5.754034E-01
8.281250E-02 9.734375E-01 -5.806152E-01
8.828125E-02 9.742188E-01 -5.778986E-01
8.906250E-02 9.796875E-01 -5.782578E-01
8.359375E-02 9.789062E-01 -5.810069E-01
1.015625E-01 9.843750E-01 -5.718352E-01
1.093750E-01 9.843750E-01 -5.670398E-01
1.093750E-01 9.921875E-01 -5.675717E-01
1.093750E-01 1.000000E+00 -5.676362E-01
1.015625E-01 1.000000E+00 -5.725396E-01
9.843750E-02 9.890625E-01 -5.740596E-01
1.039063E-01 9.898438E-01 -5.707651E-01
1.046875E-01 9.953125E-01 -5.705504E-01
9.921875E-02 9.945312E-01 -5.738747E-01
1.171875E-01 9.843750E-01 -5.619487E-01
1.250000E-01 9.843750E-01 -5.564752E-01
1.250000E-01 9.921875E-01 -5.569976E-01
1.250000E-01 1.000000E+00 -5.570481E-01
1.171875E-01 1.000000E+00 -5.626446E-01
1.140625E-01 9.890625E-01 -5.644482E-01
1.195313E-01 9.898438E-01 -5.606582E-01
1.203125E-01 9.953125E-01 -5.603730E-01
1.148437E-01 9.945312E-01 -5.641927E-01
1.015625E-01 9.687500E-01 -5.697830E-01
1.093750E-01 9.687500E-01 -5.650043E-01
1.093750E-01 9.765625E-01 -5.662141E-01
9.843750E-02 9.734375E-01 -5.724042E-01
1.039063E-01 9.742188E-01 -5.691854E-01
1.046875E-01 9.796875E-01 -5.694666E-01
9.921875E-02 9.789062E-01 -5.727182E-01
1.171875E-01 9.687500E-01 -5.599308E-01
1.250000E-01 9.687500E-01 -5.544766E-01
1.250000E-01 9.765625E-01 -5.556645E-01
1.140625E-01 9.734375E-01 -5.628196E-01
1.195313E-01 9.742188E-01 -5.591056E-01
1.203125E-01 9.796875E-01 -5.593079E-01
1.148437E-01 9.789062E-01 -5.630551E-01
7.031250E-02 9.531250E-01 -5.818597E-01
7.812500E-02 9.531250E-01 -5.784816E-01
7.812500E-02 9.609375E-01 -5.804212E-01
6.718750E-02 9.578125E-01 -5.843334E-01
7.265625E-02 9.585938E-01 -5.822046E-01
7.343750E-02 9.640625E-01 -5.831494E-01
6.796875E-02 9.632812E-01 -5.853121E-01
8.593750E-02 9.531250E-01 -5.748026E-01
9.375000E-02 9.531250E-01 -5.707338E-01
9.375000E-02 9.609375E-01 -5.726483E-01
8.281250E-02 9.578125E-01 -5.775486E-01
8.828125E-02 9.585938E-01 -5.749135E-01
8.906250E-02 9.640625E-01 -5.757753E-01
8.359375E-02 9.632812E-01 -5.784451E-01
7.031250E-02 9.375000E-01 -5.769620E-01
7.812500E-02 9.375000E-01 -5.736115E-01
7.812500E-02 9.453125E-01 -5.762418E-01
6.718750E-02 9.421875E-01 -5.798347E-01
7.265625E-02 9.429688E-01 -5.777906E-01
7.343750E-02 9.484375E-01 -5.792418E-01
6.796875E-02 9.476562E-01 -5.813215E-01
8.593750E-02 9.375000E-01 -5.699623E-01
9.375000E-02 9.375000E-01 -5.659268E-01
9.375000E-02 9.453125E-01 -5.685229E-01
8.281250E-02 9.421875E-01 -5.731003E-01
8.828125E-02 9.429688E-01 -5.705529E-01
8.906250E-02 9.484375E-01 -5.719154E-01
8.359375E-02 9.476562E-01 -5.744997E-01
1.015625E-01 9.531250E-01 -5.663674E-01
1.093750E-01 9.531250E-01 -5.616167E-01
1.093750E-01 9.609375E-01 -5.635016E-01
9.843750E-02 9.578125E-01 -5.693795E-01
1.039063E-01 9.585938E-01 -5.662439E-01
1.046875E-01 9.640625E-01 -5.670205E-01
9.921875E-02 9.632812E-01 -5.701917E-01
1.171875E-01 9.531250E-01 -5.565724E-01
1.250000E-01 9.531250E-01 -5.511502E-01
1.250000E-01 9.609375E-01 -5.530010E-01
1.140625E-01 9.578125E-01 -5.598440E-01
1.195313E-01 9.585938E-01 -5.562145E-01
1.203125E-01 9.640625E-01 -5.569042E-01
1.148437E-01 9.632812E-01 -5.605698E-01
1.015625E-01 9.375000E-01 -5.615959E-01
1.093750E-01 9.375000E-01 -5.568841E-01
1.093750E-01 9.453125E-01 -5.594400E-01
9.843750E-02 9.421875E-01 -5.649921E-01
1.039063E-01 9.429688E-01 -5.619468E-01
1.046875E-01 9.484375E-01 -5.632175E-01
9.921875E-02 9.476562E-01 -5.663007E-01
1.171875E-01 9.375000E-01 -5.518810E-01
1.250000E-01 9.375000E-01 -5.465032E-01
1.250000E-01 9.453125E-01 -5.490129E-01
1.140625E-01 9.421875E-01 -5.555277E-01
1.195313E-01 9.429688E-01 -5.519913E-01
1.203125E-01 9.484375E-01 -5.531669E-01
[...]
CELL_DATA 57344
SCALARS sol float 1
LOOKUP_TABLE default
-6.020988E-01
-6.021296E-01
-6.023385E-01
-6.017747E-01
-6.023717E-01
-6.017989E-01
-6.025131E-01
-6.015349E-01
-6.014824E-01
-6.023717E-01
-6.017989E-01
-6.014759E-01
-6.026618E-01
-6.010509E-01
-6.010297E-01
-6.025131E-01
-6.021296E-01
-6.014759E-01
-6.009969E-01
-6.026618E-01
-6.008378E-01
-6.005649E-01
-6.007162E-01
-6.023385E-01
-6.020988E-01
-6.009969E-01
-6.014824E-01
-6.006494E-01
-6.002845E-01
-6.000860E-01
-6.000507E-01
-6.017747E-01
-6.007162E-01
-6.006494E-01
-6.010297E-01
-6.000226E-01
-5.998110E-01
-5.994509E-01
-5.997047E-01
-6.015349E-01
-6.000507E-01
-6.000226E-01
-6.008378E-01
-5.994991E-01
-5.991772E-01
-5.989718E-01
-5.990156E-01
-5.989877E-01
-6.010509E-01
-5.998110E-01
-5.997047E-01
-5.994991E-01
-6.002845E-01
-5.988754E-01
-5.984600E-01
-5.981535E-01
-5.982525E-01
-5.983298E-01
-6.005649E-01
-5.991772E-01
-5.989877E-01
-5.988754E-01
-6.000860E-01
-5.980684E-01
-5.980899E-01
-5.978684E-01
-5.978692E-01
-5.973570E-01
-5.975616E-01
-5.984600E-01
-5.990156E-01
-5.983298E-01
-5.980684E-01
-5.994509E-01
-5.974126E-01
-5.971300E-01
-5.968696E-01
-5.970059E-01
-5.966400E-01
-5.967287E-01
-5.978684E-01
-5.980899E-01
-5.982525E-01
-5.975616E-01
-5.974126E-01
-5.989718E-01
-5.964589E-01
-5.965368E-01
-5.965012E-01
-5.963905E-01
-5.956952E-01
-5.960360E-01
-5.968696E-01
-5.971300E-01
-5.978692E-01
-5.967287E-01
-5.964589E-01
-5.981535E-01
-5.957798E-01
-5.956041E-01
-5.955478E-01
-5.954474E-01
-5.949777E-01
-5.951178E-01
-5.948973E-01
-5.963905E-01
-5.965012E-01
-5.965368E-01
-5.970059E-01
-5.960360E-01
-5.957798E-01
-5.973570E-01
-5.946803E-01
-5.946575E-01
-5.945808E-01
-5.944933E-01
-5.938270E-01
-5.940460E-01
-5.942210E-01
-5.954474E-01
-5.955478E-01
-5.956041E-01
-5.966400E-01
-5.948973E-01
-5.946803E-01
-5.937796E-01
-5.936934E-01
-5.941016E-01
-5.936729E-01
-5.935922E-01
-5.934721E-01
-5.927217E-01
-5.930331E-01
-5.944933E-01
-5.951178E-01
-5.945808E-01
-5.946575E-01
-5.956952E-01
-5.942210E-01
-5.937796E-01
-5.927796E-01
-5.925051E-01
-5.928106E-01
-5.925325E-01
-5.922620E-01
-5.923005E-01
-5.917681E-01
-5.920462E-01
-5.935922E-01
-5.941016E-01
-5.940460E-01
-5.936729E-01
-5.936934E-01
-5.949777E-01
-5.930331E-01
-5.927796E-01
-5.915038E-01
-5.917723E-01
-5.918063E-01
-5.921491E-01
-5.918722E-01
-5.915447E-01
-5.905155E-01
-5.908097E-01
-5.922620E-01
-5.928106E-01
-5.934721E-01
-5.925325E-01
-5.925051E-01
-5.938270E-01
-5.920462E-01
-5.915038E-01
-5.905209E-01
-5.903044E-01
-5.903779E-01
-5.909094E-01
-5.906845E-01
-5.902942E-01
-5.895612E-01
-5.897972E-01
-5.896033E-01
-5.915447E-01
-5.918722E-01
-5.921491E-01
-5.923005E-01
-5.917723E-01
-5.918063E-01
-5.927217E-01
-5.908097E-01
-5.905209E-01
-5.891011E-01
-5.898251E-01
-5.896090E-01
-5.894114E-01
-5.894105E-01
-5.891053E-01
-5.880805E-01
-5.884191E-01
-5.885384E-01
-5.902942E-01
-5.906845E-01
-5.909094E-01
-5.917681E-01
-5.903044E-01
-5.903779E-01
-5.896033E-01
-5.891011E-01
-5.880966E-01
-5.885548E-01
-5.881896E-01
-5.881063E-01
-5.886928E-01
-5.883648E-01
-5.878965E-01
-5.876558E-01
-5.866686E-01
-5.869361E-01
-5.891053E-01
-5.897972E-01
-5.894105E-01
-5.898251E-01
-5.905155E-01
-5.896090E-01
-5.894114E-01
-5.885384E-01
-5.880966E-01
-5.865342E-01
-5.871344E-01
-5.868971E-01
-5.866961E-01
-5.870735E-01
-5.869194E-01
-5.862379E-01
-5.861783E-01
-5.854805E-01
-5.859366E-01
-5.878965E-01
-5.886928E-01
-5.884191E-01
-5.883648E-01
-5.885548E-01
-5.895612E-01
-5.881896E-01
-5.881063E-01
-5.869361E-01
-5.865342E-01
-5.852646E-01
-5.860935E-01
-5.864176E-01
-5.855263E-01
-5.854089E-01
-5.863453E-01
-5.858274E-01
-5.852837E-01
-5.839228E-01
-5.842886E-01
-5.862379E-01
-5.870735E-01
-5.876558E-01
-5.869194E-01
-5.871344E-01
-5.880805E-01
-5.868971E-01
-5.866961E-01
-5.859366E-01
-5.852646E-01
-5.838973E-01
-5.842995E-01
-5.846635E-01
-5.840169E-01
-5.837602E-01
-5.848011E-01
-5.844080E-01
-5.837285E-01
-5.827337E-01
-5.830653E-01
-5.829806E-01
-5.852837E-01
-5.858274E-01
-5.863453E-01
-5.861783E-01
-5.860935E-01
-5.864176E-01
-5.866686E-01
-5.855263E-01
-5.854089E-01
-5.842886E-01
-5.838973E-01
-5.821643E-01
-5.835817E-01
-5.835865E-01
-5.836333E-01
-5.828895E-01
-5.827406E-01
-5.828297E-01
-5.823074E-01
-5.809262E-01
-5.813837E-01
-5.812877E-01
-5.837285E-01
-5.844080E-01
-5.848011E-01
-5.854805E-01
-5.842995E-01
-5.846635E-01
-5.840169E-01
-5.837602E-01
-5.829806E-01
-5.821643E-01
-5.808629E-01
-5.820079E-01
-5.819388E-01
-5.820260E-01
-5.809642E-01
-5.808557E-01
-5.818751E-01
-5.816486E-01
-5.807936E-01
-5.804326E-01
-5.792107E-01
-5.797178E-01
-5.823074E-01
-5.830653E-01
-5.828297E-01
-5.835817E-01
-5.839228E-01
-5.835865E-01
-5.836333E-01
-5.828895E-01
-5.827406E-01
-5.812877E-01
-5.808629E-01
-5.789899E-01
-5.803584E-01
-5.803433E-01
-5.804846E-01
-5.799503E-01
-5.795257E-01
-5.799310E-01
-5.799013E-01
-5.788100E-01
-5.786525E-01
-5.777907E-01
-5.782913E-01
-5.807936E-01
-5.818751E-01
-5.813837E-01
-5.816486E-01
-5.820079E-01
-5.827337E-01
-5.819388E-01
-5.820260E-01
-5.809642E-01
-5.808557E-01
-5.797178E-01
-5.789899E-01
-5.776695E-01
-5.790115E-01
-5.796253E-01
-5.788414E-01
-5.788958E-01
-5.780779E-01
-5.778590E-01
-5.791376E-01
-5.783798E-01
-5.776210E-01
-5.759313E-01
-5.762392E-01
-5.788100E-01
-5.799310E-01
-5.804326E-01
-5.799013E-01
-5.803584E-01
-5.809262E-01
-5.803433E-01
-5.804846E-01
-5.799503E-01
-5.795257E-01
-5.782913E-01
-5.776695E-01
-5.756581E-01
-5.768953E-01
-5.775493E-01
-5.770323E-01
-5.770218E-01
-5.764691E-01
-5.759990E-01
-5.772923E-01
-5.767319E-01
-5.757644E-01
-5.745098E-01
-5.749363E-01
-5.749267E-01
-5.776210E-01
-5.783798E-01
-5.791376E-01
-5.786525E-01
-5.790115E-01
-5.796253E-01
-5.792107E-01
-5.788414E-01
-5.788958E-01
-5.780779E-01
-5.778590E-01
-5.762392E-01
-5.756581E-01
-5.740313E-01
-5.759405E-01
-5.761663E-01
-5.764578E-01
-5.758448E-01
-5.759894E-01
-5.746495E-01
-5.743987E-01
-5.748526E-01
-5.741140E-01
-5.723795E-01
-5.729550E-01
-5.728336E-01
-5.757644E-01
-5.767319E-01
-5.772923E-01
-5.777907E-01
-5.768953E-01
-5.775493E-01
-5.770323E-01
-5.770218E-01
-5.764691E-01
-5.759990E-01
-5.749267E-01
-5.740313E-01
-5.723090E-01
-5.740666E-01
-5.742940E-01
-5.745516E-01
-5.736009E-01
-5.737861E-01
-5.727827E-01
-5.723047E-01
-5.736631E-01
-5.735388E-01
-5.722985E-01
-5.718181E-01
-5.703640E-01
-5.712152E-01
-5.741140E-01
-5.749363E-01
-5.748526E-01
-5.759405E-01
-5.759313E-01
-5.761663E-01
-5.764578E-01
-5.758448E-01
-5.759894E-01
-5.746495E-01
-5.743987E-01
-5.728336E-01
-5.723090E-01
-5.701347E-01
-5.721916E-01
-5.723991E-01
-5.728825E-01
-5.725749E-01
-5.723989E-01
-5.713004E-01
-5.709751E-01
-5.713984E-01
-5.714934E-01
-5.699943E-01
-5.697391E-01
-5.687152E-01
-5.690820E-01
-5.722985E-01
-5.736631E-01
-5.729550E-01
-5.735388E-01
-5.740666E-01
-5.745098E-01
-5.742940E-01
-5.745516E-01
-5.736009E-01
-5.737861E-01
-5.727827E-01
-5.723047E-01
-5.712152E-01
-5.701347E-01
-5.685265E-01
-5.714440E-01
-5.705416E-01
-5.707693E-01
-5.709955E-01
-5.704822E-01
-5.704363E-01
-5.689338E-01
-5.686497E-01
-5.705417E-01
-5.695452E-01
-5.685730E-01
-5.665581E-01
-5.671619E-01
-5.699943E-01
-5.713984E-01
-5.718181E-01
-5.714934E-01
-5.721916E-01
-5.723795E-01
-5.723991E-01
-5.728825E-01
-5.725749E-01
-5.723989E-01
-5.713004E-01
-5.709751E-01
-5.690820E-01
-5.685265E-01
-5.662172E-01
-5.690505E-01
-5.681078E-01
-5.686645E-01
-5.689004E-01
-5.685761E-01
-5.684537E-01
-5.676131E-01
-5.669697E-01
-5.683992E-01
-5.676725E-01
-5.664191E-01
-5.649074E-01
-5.654279E-01
-5.653879E-01
-5.685730E-01
-5.695452E-01
-5.705417E-01
-5.697391E-01
-5.705416E-01
-5.714440E-01
-5.703640E-01
-5.707693E-01
-5.709955E-01
-5.704822E-01
-5.704363E-01
-5.689338E-01
-5.686497E-01
-5.671619E-01
-5.662172E-01
-5.645932E-01
-5.679003E-01
-5.673645E-01
-5.669179E-01
-5.674197E-01
-5.678577E-01
-5.666340E-01
-5.665579E-01
-5.653047E-01
-5.649553E-01
-5.654964E-01
-5.645431E-01
-5.624588E-01
-5.631512E-01
-5.629041E-01
-5.664191E-01
-5.676725E-01
-5.683992E-01
-5.687152E-01
-5.681078E-01
-5.690505E-01
-5.686645E-01
-5.689004E-01
-5.685761E-01
-5.684537E-01
-5.676131E-01
-5.669697E-01
-5.653879E-01
-5.645932E-01
-5.621510E-01
-5.656994E-01
-5.652718E-01
-5.647480E-01
-5.648620E-01
-5.653409E-01
-5.644745E-01
-5.642475E-01
-5.633918E-01
-5.626637E-01
-5.640744E-01
-5.640528E-01
-5.624298E-01
-5.618310E-01
-5.601478E-01
-5.612917E-01
-5.645431E-01
-5.654279E-01
-5.654964E-01
-5.669179E-01
-5.665581E-01
-5.673645E-01
-5.679003E-01
-5.674197E-01
-5.678577E-01
-5.666340E-01
-5.665579E-01
-5.653047E-01
-5.649553E-01
-5.629041E-01
-5.621510E-01
-5.601820E-01
-5.639063E-01
-5.630815E-01
-5.626516E-01
-5.638261E-01
-5.638996E-01
-5.629396E-01
-5.629119E-01
-5.611417E-01
-5.607633E-01
-5.614942E-01
-5.617138E-01
-5.598099E-01
-5.594575E-01
-5.582737E-01
-5.587726E-01
-5.624298E-01
-5.640744E-01
-5.631512E-01
-5.640528E-01
-5.647480E-01
-5.649074E-01
-5.652718E-01
-5.656994E-01
-5.648620E-01
-5.653409E-01
-5.644745E-01
-5.642475E-01
-5.633918E-01
-5.626637E-01
-5.612917E-01
-5.601820E-01
-5.581203E-01
-5.617253E-01
-5.618913E-01
-5.613277E-01
-5.607022E-01
-5.615180E-01
-5.616455E-01
-5.602638E-01
-5.602775E-01
-5.589325E-01
-5.582431E-01
-5.605761E-01
-5.593431E-01
-5.581594E-01
-5.558237E-01
-5.568576E-01
-5.598099E-01
-5.614942E-01
-5.618310E-01
-5.617138E-01
-5.626516E-01
-5.624588E-01
-5.630815E-01
-5.639063E-01
-5.638261E-01
-5.638996E-01
-5.629396E-01
-5.629119E-01
-5.611417E-01
-5.607633E-01
-5.587726E-01
-5.581203E-01
-5.555250E-01
-5.594136E-01
-5.591857E-01
-5.589317E-01
-5.579562E-01
-5.593187E-01
-5.595447E-01
-5.589378E-01
-5.585484E-01
-5.571109E-01
-5.566174E-01
-5.581410E-01
-5.572497E-01
-5.557129E-01
-5.539473E-01
-5.545607E-01
-5.543043E-01
-5.581594E-01
-5.593431E-01
-5.605761E-01
-5.594575E-01
-5.607022E-01
-5.618913E-01
-5.601478E-01
-5.613277E-01
-5.617253E-01
-5.615180E-01
-5.616455E-01
-5.602638E-01
-5.602775E-01
-5.589325E-01
-5.582431E-01
-5.568576E-01
-5.555250E-01
-5.536244E-01
-5.583632E-01
-5.576324E-01
-5.579794E-01
-5.572002E-01
-5.565337E-01
-5.572586E-01
-5.573576E-01
-5.564194E-01
-5.562462E-01
-5.543232E-01
-5.538716E-01
-5.547815E-01
-5.536154E-01
-5.511860E-01
-5.519937E-01
-5.520507E-01
-5.557129E-01
-5.572497E-01
-5.581410E-01
-5.582737E-01
-5.579562E-01
-5.591857E-01
-5.589317E-01
-5.594136E-01
-5.593187E-01
-5.595447E-01
-5.589378E-01
-5.585484E-01
-5.571109E-01
-5.566174E-01
-5.543043E-01
-5.536244E-01
-5.509002E-01
-5.555383E-01
-5.547666E-01
-5.554885E-01
-5.548917E-01
-5.540725E-01
-5.548111E-01
-5.548359E-01
-5.542162E-01
-5.538426E-01
-5.527101E-01
-5.518583E-01
-5.531302E-01
-5.532113E-01
-5.512090E-01
-5.504930E-01
-5.485843E-01
-5.499464E-01
-5.536154E-01
-5.545607E-01
-5.547815E-01
-5.565337E-01
-5.558237E-01
-5.572002E-01
-5.579794E-01
-5.576324E-01
-5.583632E-01
-5.572586E-01
-5.573576E-01
-5.564194E-01
-5.562462E-01
-5.543232E-01
-5.538716E-01
-5.520507E-01
-5.509002E-01
-5.489878E-01
-5.540464E-01
-5.537232E-01
-5.535755E-01
-5.524109E-01
-5.517594E-01
-5.532271E-01
-5.534975E-01
-5.518543E-01
-5.516543E-01
-5.499869E-01
-5.495134E-01
-5.502400E-01
-5.505839E-01
-5.482792E-01
-5.478303E-01
-5.464892E-01
-5.470532E-01
-5.512090E-01
-5.531302E-01
-5.519937E-01
-5.532113E-01
-5.540725E-01
-5.539473E-01
-5.548917E-01
-5.554885E-01
-5.547666E-01
-5.555383E-01
-5.548111E-01
-5.548359E-01
-5.542162E-01
-5.538426E-01
-5.527101E-01
-5.518583E-01
-5.499464E-01
-5.489878E-01
-5.461370E-01
-5.515056E-01
-5.512049E-01
-5.511053E-01
-5.509882E-01
-5.505370E-01
-5.495148E-01
-5.502481E-01
-5.505600E-01
-5.493611E-01
-5.489286E-01
-5.477853E-01
-5.468124E-01
-5.492627E-01
-5.477956E-01
-5.464031E-01
-5.437515E-01
-5.451566E-01
-5.482792E-01
-5.502400E-01
-5.504930E-01
-5.505839E-01
-5.517594E-01
-5.511860E-01
-5.524109E-01
-5.535755E-01
-5.537232E-01
-5.540464E-01
-5.532271E-01
-5.534975E-01
-5.518543E-01
-5.516543E-01
-5.499869E-01
-5.495134E-01
-5.470532E-01
-5.461370E-01
-5.438441E-01
-5.492914E-01
-5.487172E-01
-5.485821E-01
-5.479763E-01
-5.478553E-01
-5.464626E-01
-5.489198E-01
-5.487857E-01
-5.474959E-01
-5.473051E-01
-5.451268E-01
-5.446279E-01
-5.465404E-01
-5.454861E-01
-5.436693E-01
-5.416537E-01
-5.423587E-01
-5.422348E-01
-5.464031E-01
-5.477956E-01
-5.492627E-01
-5.478303E-01
-5.495148E-01
-5.509882E-01
-5.485843E-01
-5.505370E-01
-5.511053E-01
-5.512049E-01
-5.515056E-01
-5.502481E-01
-5.505600E-01
-5.493611E-01
-5.489286E-01
-5.477853E-01
-5.468124E-01
-5.451566E-01
-5.438441E-01
-5.414618E-01
-5.468177E-01
-5.475265E-01
-5.465438E-01
-5.465044E-01
-5.467168E-01
-5.456955E-01
-5.448106E-01
-5.461972E-01
-5.462009E-01
-5.444106E-01
-5.442618E-01
-5.425935E-01
-5.417047E-01
-5.427314E-01
-5.413549E-01
-5.385857E-01
-5.395071E-01
-5.400399E-01
-5.436693E-01
-5.454861E-01
-5.465404E-01
-5.464892E-01
-5.464626E-01
-5.479763E-01
-5.478553E-01
-5.485821E-01
-5.487172E-01
-5.492914E-01
-5.489198E-01
-5.487857E-01
-5.474959E-01
-5.473051E-01
-5.451268E-01
-5.446279E-01
-5.422348E-01
-5.414618E-01
-5.384696E-01
-5.440905E-01
-5.443999E-01
-5.438139E-01
-5.433368E-01
-5.439414E-01
-5.431766E-01
-5.420635E-01
-5.437086E-01
-5.436907E-01
-5.428005E-01
-5.422090E-01
-5.404515E-01
-5.397995E-01
-5.408543E-01
-5.410381E-01
-5.386608E-01
-5.378293E-01
-5.356991E-01
-5.370907E-01
-5.413549E-01
-5.423587E-01
-5.427314E-01
-5.448106E-01
-5.437515E-01
-5.456955E-01
-5.467168E-01
-5.465044E-01
-5.475265E-01
-5.465438E-01
-5.468177E-01
-5.461972E-01
-5.462009E-01
-5.444106E-01
-5.442618E-01
-5.425935E-01
-5.417047E-01
-5.400399E-01
-5.384696E-01
-5.362939E-01
-5.427526E-01
-5.421844E-01
-5.428608E-01
-5.422883E-01
-5.419129E-01
-5.404108E-01
-5.395388E-01
-5.412405E-01
-5.412193E-01
-5.398796E-01
-5.395862E-01
-5.372669E-01
-5.366575E-01
-5.376607E-01
-5.381282E-01
-5.354275E-01
-5.348831E-01
-5.333876E-01
-5.345233E-01
-5.386608E-01
-5.408543E-01
-5.395071E-01
-5.410381E-01
-5.420635E-01
-5.416537E-01
-5.431766E-01
-5.439414E-01
-5.433368E-01
-5.443999E-01
-5.438139E-01
-5.440905E-01
-5.437086E-01
-5.436907E-01
-5.428005E-01
-5.422090E-01
-5.404515E-01
-5.397995E-01
-5.370907E-01
-5.362939E-01
-5.331799E-01
-5.395185E-01
-5.389088E-01
-5.400389E-01
-5.395655E-01
-5.391588E-01
-5.387586E-01
-5.384211E-01
-5.370040E-01
-5.384686E-01
-5.382943E-01
-5.373961E-01
-5.367857E-01
-5.353786E-01
-5.343308E-01
-5.366264E-01
-5.349282E-01
-5.333300E-01
-5.303685E-01
-5.321092E-01
-5.354275E-01
-5.376607E-01
-5.378293E-01
-5.381282E-01
-5.395388E-01
-5.385857E-01
-5.404108E-01
-5.419129E-01
-5.422883E-01
-5.428608E-01
-5.421844E-01
-5.427526E-01
-5.412405E-01
-5.412193E-01
-5.398796E-01
-5.395862E-01
-5.372669E-01
-5.366575E-01
-5.345233E-01
-5.331799E-01
-5.309972E-01
-5.377032E-01
-5.375813E-01
-5.377164E-01
-5.367950E-01
-5.364299E-01
-5.354473E-01
-5.354596E-01
-5.336524E-01
-5.365643E-01
-5.366770E-01
-5.346386E-01
-5.343221E-01
-5.322660E-01
-5.316759E-01
-5.336229E-01
-5.324080E-01
-5.303150E-01
-5.280538E-01
-5.288489E-01
-5.288327E-01
-5.333300E-01
-5.349282E-01
-5.366264E-01
-5.348831E-01
-5.370040E-01
-5.387586E-01
-5.356991E-01
-5.384211E-01
-5.391588E-01
-5.395655E-01
-5.400389E-01
-5.389088E-01
-5.395185E-01
-5.384686E-01
-5.382943E-01
-5.373961E-01
-5.367857E-01
-5.353786E-01
-5.343308E-01
-5.321092E-01
-5.309972E-01
-5.277639E-01
-5.348414E-01
-5.346606E-01
-5.349617E-01
-5.353716E-01
-5.345133E-01
-5.340602E-01
-5.341374E-01
-5.328761E-01
-5.317744E-01
-5.331883E-01
-5.333430E-01
-5.318313E-01
-5.312065E-01
-5.297935E-01
-5.285916E-01
-5.293728E-01
-5.277889E-01
-5.246859E-01
-5.257191E-01
-5.266706E-01
-5.303150E-01
-5.324080E-01
-5.336229E-01
-5.333876E-01
-5.336524E-01
-5.354473E-01
-5.354596E-01
-5.364299E-01
-5.367950E-01
-5.377164E-01
-5.375813E-01
-5.377032E-01
-5.365643E-01
-5.366770E-01
-5.346386E-01
-5.343221E-01
-5.322660E-01
-5.316759E-01
-5.288327E-01
-5.277639E-01
-5.251685E-01
-5.322303E-01
-5.318922E-01
-5.320349E-01
-5.319503E-01
-5.315070E-01
-5.305979E-01
-5.310837E-01
-5.301524E-01
-5.287476E-01
-5.315848E-01
-5.312555E-01
-5.296565E-01
-5.293131E-01
-5.267529E-01
-5.261416E-01
-5.272741E-01
-5.275604E-01
-5.248130E-01
-5.238678E-01
-5.215208E-01
-5.233732E-01
-5.277889E-01
-5.288489E-01
-5.293728E-01
-5.317744E-01
-5.303685E-01
-5.328761E-01
-5.341374E-01
-5.340602E-01
-5.353716E-01
-5.345133E-01
-5.349617E-01
-5.346606E-01
-5.348414E-01
-5.331883E-01
-5.333430E-01
-5.318313E-01
-5.312065E-01
-5.297935E-01
-5.285916E-01
-5.266706E-01
-5.251685E-01
-5.224878E-01
-5.294813E-01
-5.307008E-01
-5.293235E-01
-5.298358E-01
-5.303676E-01
-5.295467E-01
-5.289442E-01
-5.271077E-01
-5.260170E-01
-5.284728E-01
-5.283605E-01
-5.261878E-01
-5.258870E-01
-5.239168E-01
-5.228425E-01
-5.237841E-01
-5.243745E-01
-5.212836E-01
-5.206448E-01
-5.189982E-01
-5.209177E-01
-5.248130E-01
-5.272741E-01
-5.257191E-01
-5.275604E-01
-5.287476E-01
-5.280538E-01
-5.301524E-01
-5.310837E-01
-5.305979E-01
-5.319503E-01
-5.315070E-01
-5.320349E-01
-5.318922E-01
-5.322303E-01
-5.315848E-01
-5.312555E-01
-5.296565E-01
-5.293131E-01
-5.267529E-01
-5.261416E-01
-5.233732E-01
-5.224878E-01
-5.191268E-01
-5.263637E-01
-5.271774E-01
-5.262793E-01
-5.262710E-01
-5.272709E-01
-5.266255E-01
-5.259125E-01
-5.252296E-01
-5.250068E-01
-5.231977E-01
-5.257130E-01
-5.254669E-01
-5.243122E-01
-5.235320E-01
-5.214763E-01
-5.206772E-01
-5.226953E-01
-5.207698E-01
-5.189692E-01
-5.157044E-01
-5.176008E-01
-5.212836E-01
-5.237841E-01
-5.238678E-01
-5.243745E-01
-5.260170E-01
-5.246859E-01
-5.271077E-01
-5.289442E-01
-5.295467E-01
-5.303676E-01
-5.298358E-01
-5.307008E-01
-5.293235E-01
-5.294813E-01
-5.284728E-01
-5.283605E-01
-5.261878E-01
-5.258870E-01
-5.239168E-01
-5.228425E-01
-5.209177E-01
-5.191268E-01
-5.166958E-01
-5.247564E-01
-5.243401E-01
-5.253254E-01
-5.249473E-01
-5.248454E-01
-5.235785E-01
-5.229839E-01
-5.216263E-01
-5.217722E-01
-5.195541E-01
-5.228631E-01
-5.227298E-01
-5.210159E-01
-5.206104E-01
-5.179229E-01
-5.171671E-01
-5.194173E-01
-5.180443E-01
-5.156798E-01
-5.131781E-01
-5.140614E-01
-5.147426E-01
-5.189692E-01
-5.207698E-01
-5.226953E-01
-5.206448E-01
-5.231977E-01
-5.252296E-01
-5.215208E-01
-5.250068E-01
-5.259125E-01
-5.266255E-01
-5.272709E-01
-5.262710E-01
-5.271774E-01
-5.262793E-01
-5.263637E-01
-5.257130E-01
-5.254669E-01
-5.243122E-01
-5.235320E-01
-5.214763E-01
-5.206772E-01
-5.176008E-01
-5.166958E-01
-5.132210E-01
-5.211393E-01
-5.206810E-01
-5.221931E-01
-5.218352E-01
-5.218157E-01
-5.219255E-01
-5.211938E-01
-5.203275E-01
-5.202692E-01
-5.187705E-01
-5.174544E-01
-5.197882E-01
-5.194288E-01
-5.182713E-01
-5.174411E-01
-5.157796E-01
-5.145499E-01
-5.147355E-01
-5.129477E-01
-5.095179E-01
-5.106605E-01
-5.120421E-01
-5.156798E-01
-5.180443E-01
-5.194173E-01
-5.189982E-01
-5.195541E-01
-5.216263E-01
-5.217722E-01
-5.229839E-01
-5.235785E-01
-5.248454E-01
-5.249473E-01
-5.253254E-01
-5.243401E-01
-5.247564E-01
-5.228631E-01
-5.227298E-01
-5.210159E-01
-5.206104E-01
-5.179229E-01
-5.171671E-01
-5.147426E-01
-5.132210E-01
-5.107886E-01
-5.190221E-01
-5.190880E-01
-5.194871E-01
-5.187931E-01
-5.186962E-01
-5.182171E-01
-5.179179E-01
-5.165784E-01
-5.169440E-01
-5.158480E-01
-5.141546E-01
-5.175855E-01
-5.175518E-01
-5.151464E-01
-5.147222E-01
-5.123063E-01
-5.116085E-01
-5.124199E-01
-5.128081E-01
-5.096967E-01
-5.086399E-01
-5.060814E-01
-5.084122E-01
-5.129477E-01
-5.140614E-01
-5.147355E-01
-5.174544E-01
-5.157044E-01
-5.187705E-01
-5.202692E-01
-5.203275E-01
-5.219255E-01
-5.211938E-01
-5.218157E-01
-5.218352E-01
-5.221931E-01
-5.206810E-01
-5.211393E-01
-5.197882E-01
-5.194288E-01
-5.182713E-01
-5.174411E-01
-5.157796E-01
-5.145499E-01
-5.120421E-01
-5.107886E-01
-5.072028E-01
-5.158614E-01
-5.157921E-01
-5.164666E-01
-5.173689E-01
-5.161299E-01
-5.162088E-01
-5.165946E-01
-5.155269E-01
-5.146984E-01
-5.125314E-01
-5.112244E-01
-5.138406E-01
-5.138494E-01
-5.120481E-01
-5.112456E-01
-5.095836E-01
-5.081708E-01
-5.086415E-01
-5.093534E-01
-5.058791E-01
-5.051474E-01
-5.033533E-01
-5.060059E-01
-5.096967E-01
-5.124199E-01
-5.106605E-01
-5.128081E-01
-5.141546E-01
-5.131781E-01
-5.158480E-01
-5.169440E-01
-5.165784E-01
-5.182171E-01
-5.179179E-01
-5.186962E-01