# vtk DataFile Version 2.0
Grille
ASCII
DATASET POLYDATA
POINTS 481 float
0.000000E+00 8.750000E-01 -8.122311E-01
6.250000E-02 8.750000E-01 -7.999507E-01
1.250000E-01 8.750000E-01 -7.517671E-01
1.250000E-01 9.375000E-01 -7.999507E-01
1.250000E-01 1.000000E+00 -8.122311E-01
6.250000E-02 1.000000E+00 -8.653438E-01
0.000000E+00 1.000000E+00 -8.790629E-01
0.000000E+00 9.375000E-01 -8.653438E-01
3.750000E-02 9.125000E-01 -8.445501E-01
8.125000E-02 9.187500E-01 -8.255815E-01
8.750000E-02 9.625000E-01 -8.445501E-01
4.375000E-02 9.562500E-01 -8.666939E-01
1.875000E-01 8.750000E-01 -6.780674E-01
2.500000E-01 8.750000E-01 -5.752539E-01
2.500000E-01 9.375000E-01 -6.123567E-01
2.500000E-01 1.000000E+00 -6.204551E-01
1.875000E-01 1.000000E+00 -7.341520E-01
1.625000E-01 9.125000E-01 -7.431692E-01
2.062500E-01 9.187500E-01 -6.796256E-01
2.125000E-01 9.625000E-01 -6.884757E-01
1.687500E-01 9.562500E-01 -7.563661E-01
0.000000E+00 7.500000E-01 -6.204551E-01
6.250000E-02 7.500000E-01 -6.123567E-01
1.250000E-01 7.500000E-01 -5.752539E-01
1.250000E-01 8.125000E-01 -6.780674E-01
0.000000E+00 8.125000E-01 -7.341520E-01
3.750000E-02 7.875000E-01 -6.884757E-01
8.125000E-02 7.937500E-01 -6.796256E-01
8.750000E-02 8.375000E-01 -7.431692E-01
4.375000E-02 8.312500E-01 -7.563661E-01
1.875000E-01 7.500000E-01 -5.186967E-01
2.500000E-01 7.500000E-01 -4.401099E-01
2.500000E-01 8.125000E-01 -5.186967E-01
1.625000E-01 7.875000E-01 -6.051844E-01
2.062500E-01 7.937500E-01 -5.586833E-01
2.125000E-01 8.375000E-01 -6.051844E-01
1.687500E-01 8.312500E-01 -6.589585E-01
3.125000E-01 8.750000E-01 -4.522761E-01
3.750000E-01 8.750000E-01 -3.107344E-01
3.750000E-01 9.375000E-01 -3.305709E-01
3.750000E-01 1.000000E+00 -3.331825E-01
3.125000E-01 1.000000E+00 -4.901523E-01
2.875000E-01 9.125000E-01 -5.278970E-01
3.312500E-01 9.187500E-01 -4.291812E-01
3.375000E-01 9.625000E-01 -4.262527E-01
2.937500E-01 9.562500E-01 -5.302269E-01
4.375000E-01 8.750000E-01 -1.583582E-01
5.000000E-01 8.750000E-01 -2.220146E-04
5.000000E-01 9.375000E-01 1.290104E-04
5.000000E-01 1.000000E+00 3.305200E-03
4.375000E-01 1.000000E+00 -1.719997E-01
4.125000E-01 9.125000E-01 -2.323043E-01
4.562500E-01 9.187500E-01 -1.141046E-01
4.625000E-01 9.625000E-01 -1.001416E-01
4.187500E-01 9.562500E-01 -2.230220E-01
3.125000E-01 7.500000E-01 -3.457900E-01
3.750000E-01 7.500000E-01 -2.379920E-01
3.750000E-01 8.125000E-01 -2.803213E-01
2.875000E-01 7.875000E-01 -4.294671E-01
3.312500E-01 7.937500E-01 -3.528515E-01
3.375000E-01 8.375000E-01 -3.747995E-01
2.937500E-01 8.312500E-01 -4.615524E-01
4.375000E-01 7.500000E-01 -1.210897E-01
5.000000E-01 7.500000E-01 -5.844945E-04
5.000000E-01 8.125000E-01 -3.514214E-04
4.125000E-01 7.875000E-01 -1.889187E-01
4.562500E-01 7.937500E-01 -9.423474E-02
4.625000E-01 8.375000E-01 -8.834168E-02
4.187500E-01 8.312500E-01 -1.944885E-01
0.000000E+00 6.250000E-01 -3.331825E-01
6.250000E-02 6.250000E-01 -3.305709E-01
1.250000E-01 6.250000E-01 -3.107344E-01
1.250000E-01 6.875000E-01 -4.522761E-01
0.000000E+00 6.875000E-01 -4.901523E-01
3.750000E-02 6.625000E-01 -4.262527E-01
8.125000E-02 6.687500E-01 -4.291812E-01
8.750000E-02 7.125000E-01 -5.278970E-01
4.375000E-02 7.062500E-01 -5.302269E-01
1.875000E-01 6.250000E-01 -2.803213E-01
2.500000E-01 6.250000E-01 -2.379920E-01
2.500000E-01 6.875000E-01 -3.457900E-01
1.625000E-01 6.625000E-01 -3.747995E-01
2.062500E-01 6.687500E-01 -3.528515E-01
2.125000E-01 7.125000E-01 -4.294671E-01
1.687500E-01 7.062500E-01 -4.615524E-01
0.000000E+00 5.000000E-01 3.305200E-03
6.250000E-02 5.000000E-01 1.290104E-04
1.250000E-01 5.000000E-01 -2.220146E-04
1.250000E-01 5.625000E-01 -1.583582E-01
0.000000E+00 5.625000E-01 -1.719997E-01
3.750000E-02 5.375000E-01 -1.001416E-01
8.125000E-02 5.437500E-01 -1.141046E-01
8.750000E-02 5.875000E-01 -2.323043E-01
4.375000E-02 5.812500E-01 -2.230220E-01
1.875000E-01 5.000000E-01 -3.514214E-04
2.500000E-01 5.000000E-01 -5.844945E-04
2.500000E-01 5.625000E-01 -1.210897E-01
1.625000E-01 5.375000E-01 -8.834168E-02
2.062500E-01 5.437500E-01 -9.423474E-02
2.125000E-01 5.875000E-01 -1.889187E-01
1.687500E-01 5.812500E-01 -1.944885E-01
3.125000E-01 6.250000E-01 -1.869034E-01
3.750000E-01 6.250000E-01 -1.288794E-01
3.750000E-01 6.875000E-01 -1.869034E-01
2.875000E-01 6.625000E-01 -2.659011E-01
3.312500E-01 6.687500E-01 -2.228319E-01
3.375000E-01 7.125000E-01 -2.659011E-01
2.937500E-01 7.062500E-01 -3.227159E-01
4.375000E-01 6.250000E-01 -6.537091E-02
5.000000E-01 6.250000E-01 -5.649447E-04
5.000000E-01 6.875000E-01 -2.535898E-04
4.125000E-01 6.625000E-01 -1.168796E-01
4.562500E-01 6.687500E-01 -5.980441E-02
4.625000E-01 7.125000E-01 -6.283631E-02
4.187500E-01 7.062500E-01 -1.361013E-01
3.125000E-01 5.000000E-01 -2.535898E-04
3.750000E-01 5.000000E-01 -5.649447E-04
3.750000E-01 5.625000E-01 -6.537091E-02
2.875000E-01 5.375000E-01 -6.283631E-02
3.312500E-01 5.437500E-01 -5.980441E-02
3.375000E-01 5.875000E-01 -1.168796E-01
2.937500E-01 5.812500E-01 -1.361013E-01
4.375000E-01 5.000000E-01 5.511474E-05
5.000000E-01 5.000000E-01 -5.111012E-04
5.000000E-01 5.625000E-01 5.511474E-05
4.125000E-01 5.375000E-01 -2.758289E-02
4.562500E-01 5.437500E-01 -1.644056E-02
4.625000E-01 5.875000E-01 -2.758289E-02
4.187500E-01 5.812500E-01 -5.749445E-02
5.625000E-01 8.750000E-01 1.588396E-01
6.250000E-01 8.750000E-01 3.104801E-01
6.250000E-01 9.375000E-01 3.307804E-01
6.250000E-01 1.000000E+00 3.392472E-01
5.625000E-01 1.000000E+00 1.713800E-01
5.375000E-01 9.125000E-01 9.757310E-02
5.812500E-01 9.187500E-01 2.177531E-01
5.875000E-01 9.625000E-01 2.405292E-01
5.437500E-01 9.562500E-01 1.171545E-01
6.875000E-01 8.750000E-01 4.532148E-01
7.500000E-01 8.750000E-01 5.756535E-01
7.500000E-01 9.375000E-01 6.128503E-01
7.500000E-01 1.000000E+00 6.252951E-01
6.875000E-01 1.000000E+00 4.900029E-01
6.625000E-01 9.125000E-01 4.134802E-01
7.062500E-01 9.187500E-01 5.178927E-01
7.125000E-01 9.625000E-01 5.461729E-01
6.687500E-01 9.562500E-01 4.402681E-01
5.625000E-01 7.500000E-01 1.214625E-01
6.250000E-01 7.500000E-01 2.373600E-01
6.250000E-01 8.125000E-01 2.799401E-01
5.375000E-01 7.875000E-01 7.938650E-02
5.812500E-01 7.937500E-01 1.783682E-01
5.875000E-01 8.375000E-01 2.109943E-01
5.437500E-01 8.312500E-01 1.014945E-01
6.875000E-01 7.500000E-01 3.467236E-01
7.500000E-01 7.500000E-01 4.402526E-01
7.500000E-01 8.125000E-01 5.191538E-01
6.625000E-01 7.875000E-01 3.366879E-01
7.062500E-01 7.937500E-01 4.250888E-01
7.125000E-01 8.375000E-01 4.795143E-01
6.687500E-01 8.312500E-01 3.829849E-01
8.125000E-01 8.750000E-01 6.791867E-01
8.750000E-01 8.750000E-01 7.527379E-01
8.750000E-01 9.375000E-01 8.009635E-01
8.750000E-01 1.000000E+00 8.154717E-01
8.125000E-01 1.000000E+00 7.345015E-01
7.875000E-01 9.125000E-01 6.674874E-01
8.312500E-01 9.187500E-01 7.391449E-01
8.375000E-01 9.625000E-01 7.684214E-01
7.937500E-01 9.562500E-01 6.971296E-01
9.375000E-01 8.750000E-01 8.009635E-01
1.000000E+00 8.750000E-01 8.154717E-01
1.000000E+00 9.375000E-01 8.660851E-01
1.000000E+00 1.000000E+00 8.812816E-01
9.375000E-01 1.000000E+00 8.660851E-01
9.125000E-01 9.125000E-01 8.188692E-01
9.562500E-01 9.187500E-01 8.468985E-01
9.625000E-01 9.625000E-01 8.728100E-01
9.187500E-01 9.562500E-01 8.468985E-01
8.125000E-01 7.500000E-01 5.191538E-01
8.750000E-01 7.500000E-01 5.756535E-01
8.750000E-01 8.125000E-01 6.791867E-01
7.875000E-01 7.875000E-01 5.434953E-01
8.312500E-01 7.937500E-01 6.073392E-01
8.375000E-01 8.375000E-01 6.754745E-01
7.937500E-01 8.312500E-01 6.073392E-01
9.375000E-01 7.500000E-01 6.128503E-01
1.000000E+00 7.500000E-01 6.252951E-01
1.000000E+00 8.125000E-01 7.345015E-01
9.125000E-01 7.875000E-01 6.674874E-01
9.562500E-01 7.937500E-01 6.971296E-01
9.625000E-01 8.375000E-01 7.684214E-01
9.187500E-01 8.312500E-01 7.391449E-01
5.625000E-01 6.250000E-01 6.564601E-02
6.250000E-01 6.250000E-01 1.279971E-01
6.250000E-01 6.875000E-01 1.869342E-01
5.375000E-01 6.625000E-01 4.928957E-02
5.812500E-01 6.687500E-01 1.120941E-01
5.875000E-01 7.125000E-01 1.494910E-01
5.437500E-01 7.062500E-01 7.061242E-02
6.875000E-01 6.250000E-01 1.869342E-01
7.500000E-01 6.250000E-01 2.373600E-01
7.500000E-01 6.875000E-01 3.467236E-01
6.625000E-01 6.625000E-01 2.086006E-01
7.062500E-01 6.687500E-01 2.677588E-01
7.125000E-01 7.125000E-01 3.402637E-01
6.687500E-01 7.062500E-01 2.677588E-01
5.625000E-01 5.000000E-01 5.511474E-05
6.250000E-01 5.000000E-01 -5.649447E-04
6.250000E-01 5.625000E-01 6.564601E-02
5.375000E-01 5.375000E-01 1.182428E-02
5.812500E-01 5.437500E-01 2.931241E-02
5.875000E-01 5.875000E-01 6.571615E-02
5.437500E-01 5.812500E-01 2.931241E-02
6.875000E-01 5.000000E-01 -2.535898E-04
7.500000E-01 5.000000E-01 -5.844945E-04
7.500000E-01 5.625000E-01 1.214625E-01
6.625000E-01 5.375000E-01 4.928957E-02
7.062500E-01 5.437500E-01 7.061242E-02
7.125000E-01 5.875000E-01 1.494910E-01
6.687500E-01 5.812500E-01 1.120941E-01
8.125000E-01 6.250000E-01 2.799401E-01
8.750000E-01 6.250000E-01 3.104801E-01
8.750000E-01 6.875000E-01 4.532148E-01
7.875000E-01 6.625000E-01 3.366879E-01
8.312500E-01 6.687500E-01 3.829849E-01
8.375000E-01 7.125000E-01 4.795143E-01
7.937500E-01 7.062500E-01 4.250888E-01
9.375000E-01 6.250000E-01 3.307804E-01
1.000000E+00 6.250000E-01 3.392472E-01
1.000000E+00 6.875000E-01 4.900029E-01
9.125000E-01 6.625000E-01 4.134802E-01
9.562500E-01 6.687500E-01 4.402681E-01
9.625000E-01 7.125000E-01 5.461729E-01
9.187500E-01 7.062500E-01 5.178927E-01
8.125000E-01 5.000000E-01 -3.514214E-04
8.750000E-01 5.000000E-01 -2.220146E-04
8.750000E-01 5.625000E-01 1.588396E-01
7.875000E-01 5.375000E-01 7.938650E-02
8.312500E-01 5.437500E-01 1.014945E-01
8.375000E-01 5.875000E-01 2.109943E-01
7.937500E-01 5.812500E-01 1.783682E-01
9.375000E-01 5.000000E-01 1.290104E-04
1.000000E+00 5.000000E-01 3.305200E-03
1.000000E+00 5.625000E-01 1.713800E-01
9.125000E-01 5.375000E-01 9.757310E-02
9.562500E-01 5.437500E-01 1.171545E-01
9.625000E-01 5.875000E-01 2.405292E-01
9.187500E-01 5.812500E-01 2.177531E-01
0.000000E+00 3.750000E-01 3.392472E-01
6.250000E-02 3.750000E-01 3.307804E-01
[...]
CELL_DATA 896
SCALARS sol float 1
LOOKUP_TABLE default
-8.273655E-01
-8.303049E-01
-8.490964E-01
-7.972748E-01
-8.523381E-01
-8.006732E-01
-8.653162E-01
-7.751877E-01
-7.717924E-01
-8.523381E-01
-8.006732E-01
-7.726346E-01
-8.790629E-01
-7.318537E-01
-7.317806E-01
-8.653162E-01
-8.303049E-01
-7.726346E-01
-7.310793E-01
-8.790629E-01
-7.143145E-01
-6.877925E-01
-7.063603E-01
-8.490964E-01
-8.273655E-01
-7.310793E-01
-7.717924E-01
-7.026814E-01
-6.661844E-01
-6.476777E-01
-6.514898E-01
-7.972748E-01
-7.063603E-01
-7.026814E-01
-7.317806E-01
-6.513667E-01
-6.286692E-01
-5.937788E-01
-6.257766E-01
-7.751877E-01
-6.514898E-01
-6.513667E-01
-7.143145E-01
-6.112187E-01
-5.776921E-01
-5.525716E-01
-5.605396E-01
-5.728799E-01
-7.318537E-01
-6.286692E-01
-6.257766E-01
-6.112187E-01
-6.661844E-01
-5.663992E-01
-5.223412E-01
-4.858145E-01
-4.994126E-01
-5.220521E-01
-6.877925E-01
-5.776921E-01
-5.728799E-01
-5.663992E-01
-6.476777E-01
-5.111174E-01
-4.738275E-01
-5.011303E-01
-4.663535E-01
-4.204857E-01
-4.723618E-01
-5.223412E-01
-5.605396E-01
-5.220521E-01
-5.111174E-01
-5.937788E-01
-4.681428E-01
-4.019534E-01
-4.322867E-01
-3.993723E-01
-3.676786E-01
-4.162701E-01
-4.738275E-01
-5.011303E-01
-4.994126E-01
-4.723618E-01
-4.681428E-01
-5.525716E-01
-4.092233E-01
-3.599716E-01
-3.823750E-01
-3.987551E-01
-2.991368E-01
-3.791661E-01
-4.019534E-01
-4.322867E-01
-4.663535E-01
-4.162701E-01
-4.092233E-01
-4.858145E-01
-3.719561E-01
-2.944192E-01
-3.260668E-01
-3.401579E-01
-2.454288E-01
-2.632108E-01
-3.159264E-01
-3.599716E-01
-3.823750E-01
-3.987551E-01
-3.993723E-01
-3.791661E-01
-3.719561E-01
-4.204857E-01
-3.126099E-01
-2.350534E-01
-2.629498E-01
-2.928908E-01
-1.659913E-01
-1.907955E-01
-2.865450E-01
-2.944192E-01
-3.260668E-01
-3.401579E-01
-3.676786E-01
-3.159264E-01
-3.126099E-01
-2.706703E-01
-2.230862E-01
-1.696895E-01
-2.221455E-01
-2.385947E-01
-1.473831E-01
-9.095964E-02
-2.336327E-01
-2.350534E-01
-2.632108E-01
-2.629498E-01
-2.928908E-01
-2.991368E-01
-2.865450E-01
-2.706703E-01
-2.279296E-01
-1.477827E-01
-9.219790E-02
-1.591455E-01
-1.836528E-01
-7.297704E-02
-3.337446E-02
-1.867711E-01
-1.696895E-01
-2.230862E-01
-1.907955E-01
-2.221455E-01
-2.385947E-01
-2.454288E-01
-2.336327E-01
-2.279296E-01
-1.811779E-01
-1.262807E-01
-8.259882E-02
-3.790197E-02
-1.355307E-01
-1.659223E-01
3.980996E-02
-1.467252E-01
-9.219790E-02
-1.477827E-01
-1.473831E-01
-1.591455E-01
-1.836528E-01
-1.659913E-01
-1.867711E-01
-1.811779E-01
-1.462663E-01
-6.286826E-02
-3.071574E-02
3.208190E-02
-7.302202E-02
-1.070115E-01
9.774494E-02
7.283240E-02
-1.033694E-01
-3.790197E-02
-8.259882E-02
-1.262807E-01
-7.297704E-02
-1.355307E-01
-1.659223E-01
-9.095964E-02
-1.467252E-01
-1.462663E-01
-1.048669E-01
-3.137097E-02
3.511617E-02
8.671316E-02
-6.199766E-02
-8.590573E-02
1.784211E-01
1.464025E-01
-8.127785E-02
3.208190E-02
-3.071574E-02
-6.286826E-02
-3.337446E-02
-7.302202E-02
-1.070115E-01
-1.033694E-01
-1.048669E-01
-8.320644E-02
2.572994E-02
8.772709E-02
6.118169E-02
1.596726E-01
-2.256965E-02
-4.245761E-02
1.933899E-01
2.516210E-01
-4.211409E-02
8.671316E-02
7.283240E-02
3.511617E-02
-3.137097E-02
3.980996E-02
-6.199766E-02
-8.590573E-02
-8.127785E-02
-8.320644E-02
-4.992811E-02
6.826524E-02
1.588656E-01
1.219347E-01
2.307947E-01
2.523853E-02
-1.967103E-02
2.638633E-01
3.053636E-01
-3.183739E-02
1.596726E-01
8.772709E-02
1.464025E-01
6.118169E-02
2.572994E-02
9.774494E-02
-2.256965E-02
-4.245761E-02
-4.211409E-02
-4.992811E-02
-3.284561E-02
6.505063E-02
1.280053E-01
1.650931E-01
2.290988E-01
2.895753E-01
4.077408E-02
1.604443E-02
3.732394E-01
-1.021175E-02
2.307947E-01
1.588656E-01
1.933899E-01
1.219347E-01
6.826524E-02
1.784211E-01
2.523853E-02
-1.967103E-02
-3.183739E-02
-3.284561E-02
-1.523268E-02
1.149101E-01
1.807849E-01
2.233149E-01
2.685027E-01
3.541697E-01
7.905833E-02
3.908755E-02
4.267648E-01
3.982319E-01
1.127593E-02
2.895753E-01
2.290988E-01
1.650931E-01
2.638633E-01
1.280053E-01
6.505063E-02
2.516210E-01
4.077408E-02
1.604443E-02
-1.021175E-02
-1.523268E-02
-4.699349E-03
1.115809E-01
1.712164E-01
2.349177E-01
3.288830E-01
3.966661E-01
7.679511E-02
3.290681E-02
4.968845E-01
4.621490E-01
1.432705E-02
3.541697E-01
2.685027E-01
2.233149E-01
3.053636E-01
1.807849E-01
1.149101E-01
7.905833E-02
3.908755E-02
1.127593E-02
-4.699349E-03
3.677146E-03
1.493432E-01
1.917307E-01
2.870220E-01
3.861507E-01
3.362731E-01
4.659947E-01
1.037891E-01
5.356343E-02
5.056584E-01
5.580711E-01
2.483817E-02
3.966661E-01
3.982319E-01
3.288830E-01
2.349177E-01
3.732394E-01
1.712164E-01
1.115809E-01
7.679511E-02
3.290681E-02
1.432705E-02
3.677146E-03
3.677146E-03
1.448576E-01
2.344734E-01
3.109651E-01
4.422822E-01
3.854088E-01
5.203212E-01
8.673678E-02
4.209272E-02
5.622467E-01
5.994403E-01
1.432705E-02
4.659947E-01
3.861507E-01
4.621490E-01
3.362731E-01
2.870220E-01
4.267648E-01
1.917307E-01
1.493432E-01
1.037891E-01
5.356343E-02
2.483817E-02
3.677146E-03
-4.699349E-03
1.766049E-01
2.877697E-01
2.235876E-01
3.734107E-01
4.320454E-01
5.078468E-01
5.749127E-01
8.673678E-02
5.356343E-02
6.515216E-01
1.127593E-02
5.203212E-01
4.422822E-01
5.056584E-01
3.854088E-01
3.109651E-01
4.968845E-01
2.344734E-01
1.448576E-01
8.673678E-02
4.209272E-02
1.432705E-02
-4.699349E-03
-1.523268E-02
1.766049E-01
3.198238E-01
2.506938E-01
4.087273E-01
4.765899E-01
5.285491E-01
6.242898E-01
1.037891E-01
3.290681E-02
6.921473E-01
6.645428E-01
-1.021175E-02
5.749127E-01
5.078468E-01
4.320454E-01
5.622467E-01
3.734107E-01
2.877697E-01
5.580711E-01
2.235876E-01
1.766049E-01
8.673678E-02
5.356343E-02
1.127593E-02
-1.523268E-02
-3.284561E-02
1.448576E-01
2.235876E-01
2.931456E-01
3.790791E-01
4.670959E-01
5.741400E-01
6.475730E-01
7.679511E-02
3.908755E-02
7.396354E-01
7.075959E-01
-3.183739E-02
6.242898E-01
5.285491E-01
4.765899E-01
5.994403E-01
4.087273E-01
3.198238E-01
2.506938E-01
1.766049E-01
1.037891E-01
3.290681E-02
-1.021175E-02
-3.284561E-02
-4.992811E-02
1.493432E-01
2.344734E-01
3.198238E-01
3.790791E-01
5.061083E-01
6.275955E-01
5.618925E-01
7.016035E-01
7.905833E-02
1.604443E-02
7.406481E-01
7.795603E-01
-4.211409E-02
6.475730E-01
6.645428E-01
5.741400E-01
4.670959E-01
6.515216E-01
3.790791E-01
2.931456E-01
2.235876E-01
1.448576E-01
7.679511E-02
3.908755E-02
-3.183739E-02
-4.992811E-02
-8.320644E-02
1.115809E-01
1.917307E-01
2.877697E-01
4.087273E-01
5.061083E-01
6.583012E-01
5.911352E-01
7.310425E-01
4.077408E-02
-1.967103E-02
7.746445E-01
8.017857E-01
-8.127785E-02
7.016035E-01
6.275955E-01
7.075959E-01
5.618925E-01
5.061083E-01
6.921473E-01
3.790791E-01
3.198238E-01
2.344734E-01
1.493432E-01
7.905833E-02
1.604443E-02
-4.211409E-02
-8.320644E-02
-1.048669E-01
1.149101E-01
1.712164E-01
3.109651E-01
4.670959E-01
3.734107E-01
5.618925E-01
6.340662E-01
7.089396E-01
7.724108E-01
2.523853E-02
-4.245761E-02
8.293751E-01
-1.033694E-01
7.310425E-01
6.583012E-01
7.406481E-01
5.911352E-01
5.061083E-01
7.396354E-01
4.087273E-01
2.877697E-01
1.917307E-01
1.115809E-01
4.077408E-02
-1.967103E-02
-8.127785E-02
-1.048669E-01
-1.462663E-01
6.505063E-02
1.807849E-01
2.870220E-01
4.765899E-01
3.854088E-01
5.741400E-01
6.583012E-01
7.089396E-01
7.985585E-01
-2.256965E-02
-8.590573E-02
8.511657E-01
8.290146E-01
-1.467252E-01
7.724108E-01
7.089396E-01
6.340662E-01
7.746445E-01
5.618925E-01
4.670959E-01
7.795603E-01
3.734107E-01
3.109651E-01
1.712164E-01
1.149101E-01
2.523853E-02
-4.245761E-02
-1.033694E-01
-1.462663E-01
-1.811779E-01
6.826524E-02
2.349177E-01
1.280053E-01
3.362731E-01
4.320454E-01
5.285491E-01
6.275955E-01
7.310425E-01
7.985585E-01
-6.199766E-02
-1.070115E-01
8.685622E-01
8.444858E-01
-1.867711E-01
7.985585E-01
7.089396E-01
6.583012E-01
8.017857E-01
5.741400E-01
4.765899E-01
3.854088E-01
2.870220E-01
1.807849E-01
6.505063E-02
-2.256965E-02
-8.590573E-02
-1.467252E-01
-1.811779E-01
-2.279296E-01
2.572994E-02
2.233149E-01
1.219347E-01
3.288830E-01
4.422822E-01
5.078468E-01
6.475730E-01
7.724108E-01
7.016035E-01
8.290146E-01
-7.302202E-02
-1.659223E-01
8.621533E-01
8.812816E-01
-2.336327E-01
7.985585E-01
8.290146E-01
7.310425E-01
6.275955E-01
8.293751E-01
5.285491E-01
4.320454E-01
3.362731E-01
2.349177E-01
1.280053E-01
6.826524E-02
-6.199766E-02
-1.070115E-01
-1.867711E-01
-2.279296E-01
-2.706703E-01
6.118169E-02
-3.137097E-02
1.650931E-01
2.685027E-01
3.861507E-01
5.203212E-01
6.242898E-01
7.746445E-01
7.075959E-01
8.293751E-01
-1.355307E-01
-1.836528E-01
8.685622E-01
8.812816E-01
-2.865450E-01
8.290146E-01
7.724108E-01
8.444858E-01
7.016035E-01
6.475730E-01
8.511657E-01
5.078468E-01
4.422822E-01
3.288830E-01
2.233149E-01
1.219347E-01
2.572994E-02
-7.302202E-02
-1.659223E-01
-2.336327E-01
-2.706703E-01
-3.126099E-01
3.511617E-02
-6.286826E-02
1.588656E-01
2.290988E-01
3.966661E-01
5.749127E-01
4.659947E-01
6.645428E-01
7.406481E-01
8.017857E-01
8.511657E-01
-1.591455E-01
-2.385947E-01
-3.159264E-01
8.293751E-01
7.746445E-01
8.621533E-01
7.075959E-01
6.242898E-01
8.685622E-01
5.203212E-01
3.861507E-01
2.685027E-01
1.650931E-01
6.118169E-02
-3.137097E-02
-1.355307E-01
-1.836528E-01
-2.865450E-01
-3.126099E-01
-3.719561E-01
8.772709E-02
-3.071574E-02
-1.262807E-01
2.307947E-01
3.541697E-01
5.622467E-01
4.621490E-01
6.515216E-01
7.396354E-01
7.795603E-01
-2.221455E-01
-2.928908E-01
-3.791661E-01
8.511657E-01
8.017857E-01
7.406481E-01
8.685622E-01
6.645428E-01
5.749127E-01
8.812816E-01
4.659947E-01
3.966661E-01
2.290988E-01
1.588656E-01
3.511617E-02
-6.286826E-02
-1.591455E-01
-2.385947E-01
-3.159264E-01
-3.719561E-01
-4.092233E-01
8.671316E-02
-8.259882E-02
-1.477827E-01
2.895753E-01
1.596726E-01
3.982319E-01
5.056584E-01
5.994403E-01
6.921473E-01
-2.629498E-01
-3.401579E-01
-4.162701E-01
7.795603E-01
7.396354E-01
8.812816E-01
6.515216E-01
5.622467E-01
4.621490E-01
3.541697E-01
2.307947E-01
8.772709E-02
-3.071574E-02
-1.262807E-01
-2.221455E-01
-2.928908E-01
-3.791661E-01
-4.092233E-01
-4.681428E-01
3.208190E-02
-9.219790E-02
-2.230862E-01
2.638633E-01
1.464025E-01
3.732394E-01
4.968845E-01
5.580711E-01
-3.260668E-01
-3.987551E-01
-4.723618E-01
6.921473E-01
5.994403E-01
5.056584E-01
3.982319E-01
2.895753E-01
1.596726E-01
8.671316E-02
-8.259882E-02
-1.477827E-01
-2.629498E-01
-3.401579E-01
-4.162701E-01
-4.681428E-01
-5.111174E-01
7.283240E-02
-3.790197E-02
-1.696895E-01
-2.350534E-01
1.933899E-01
3.053636E-01
4.267648E-01
-3.823750E-01
-4.322867E-01
-5.220521E-01
5.580711E-01
4.968845E-01
3.732394E-01
2.638633E-01
1.464025E-01
3.208190E-02
-9.219790E-02
-2.230862E-01
-3.260668E-01
-3.987551E-01
-4.723618E-01
-5.111174E-01
-5.663992E-01
3.980996E-02
-7.297704E-02
-1.907955E-01
-2.944192E-01
1.784211E-01
2.516210E-01
-4.019534E-01
-5.011303E-01
-5.728799E-01
4.267648E-01
3.053636E-01
1.933899E-01
7.283240E-02
-3.790197E-02
-1.696895E-01
-2.350534E-01
-3.823750E-01
-4.322867E-01
-5.220521E-01
-5.663992E-01
-6.112187E-01
9.774494E-02
-3.337446E-02
-1.473831E-01
-2.632108E-01
-3.599716E-01
-4.738275E-01
-5.223412E-01
-6.257766E-01
2.516210E-01
1.784211E-01
3.980996E-02
-7.297704E-02
-1.907955E-01
-2.944192E-01
-4.019534E-01
-5.011303E-01
-5.728799E-01
-6.112187E-01
-6.513667E-01
-9.095964E-02
-1.659913E-01
-2.991368E-01
-3.993723E-01
-4.994126E-01
-5.776921E-01
-6.514898E-01
9.774494E-02
-3.337446E-02
-1.473831E-01
-2.632108E-01
-3.599716E-01
-4.738275E-01
-5.223412E-01
-6.257766E-01
-6.513667E-01
-7.026814E-01
-2.454288E-01
-3.676786E-01
-4.663535E-01
-5.605396E-01
-6.286692E-01
-7.063603E-01
-9.095964E-02
-1.659913E-01
-2.991368E-01
-3.993723E-01
-4.994126E-01
-5.776921E-01
-6.514898E-01
-7.026814E-01
-7.310793E-01
-4.204857E-01
-4.858145E-01
-5.937788E-01
-6.661844E-01
-7.317806E-01
-2.454288E-01
-3.676786E-01
-4.663535E-01
-5.605396E-01
-6.286692E-01
-7.063603E-01
-7.310793E-01
-7.726346E-01
-5.525716E-01
-6.476777E-01
-7.143145E-01
-7.717924E-01
-4.204857E-01
-4.858145E-01
-5.937788E-01
-6.661844E-01
-7.317806E-01
-7.726346E-01
-8.006732E-01
-6.877925E-01
-7.318537E-01
-7.972748E-01
-5.525716E-01
-6.476777E-01
-7.143145E-01
-7.717924E-01
-8.006732E-01
-8.303049E-01
-7.751877E-01
-8.273655E-01
-6.877925E-01
-7.318537E-01
-7.972748E-01
-8.303049E-01
-8.523381E-01
-8.490964E-01
-7.751877E-01
-8.273655E-01
-8.523381E-01
-8.653162E-01
-8.490964E-01
-8.653162E-01
-8.790629E-01
-8.790629E-01
